M 0.00000 4 (294.91, 377.76, 398.84), (354.47, 333.18), 2.45
M 0.30000 4 (295.50, 377.32, 398.84), (354.47, 333.18), 2.45
M 0.60000 4 (296.09, 376.88, 398.84), (354.47, 333.18), 2.45
M 0.90000 4 (296.68, 376.44, 398.84), (354.47, 333.18), 2.45
N -t 1.000000 -n 0 -e 9999.990000
N -t 1.000000 -n 1 -e 9999.990000
N -t 1.000000 -n 2 -e 9999.990000
N -t 1.000000 -n 3 -e 9999.990000
N -t 1.000000 -n 4 -e 9999.990000
M 1.20000 4 (297.26, 376.00, 398.84), (354.47, 333.18), 2.45
M 1.50000 4 (297.85, 375.56, 398.84), (354.47, 333.18), 2.45
M 1.80000 4 (298.44, 375.12, 398.84), (354.47, 333.18), 2.45
r -t 2.000000000 -Hs 0 -Hd -2 -Ni 0 -Nx 100.00 -Ny 300.00 -Nz 500.00 -Ne 9999.990000 -Nl RTR -Nw --- -Ma 0 -Md 0 -Ms 0 -Mt 0 -Is 0.0 -Id 0.255 -It dbr -Il 400 -If 0 -Ii 0 -Iv 0 
N -t 2.000000 -n 0 -e 9999.980000
N -t 2.000000 -n 1 -e 9999.980000
N -t 2.000000 -n 2 -e 9999.980000
N -t 2.000000 -n 3 -e 9999.980000
N -t 2.000000 -n 4 -e 9999.980000
M 2.10000 4 (299.03, 374.68, 398.84), (354.47, 333.18), 2.45
M 2.40000 4 (299.61, 374.24, 398.84), (354.47, 333.18), 2.45
M 2.70000 4 (300.20, 373.80, 398.84), (354.47, 333.18), 2.45
M 3.00000 4 (300.79, 373.36, 398.84), (354.47, 333.18), 2.45
N -t 3.000000 -n 0 -e 9999.958060
N -t 3.000000 -n 1 -e 9999.970000
N -t 3.000000 -n 2 -e 9999.970000
N -t 3.000000 -n 3 -e 9999.970000
N -t 3.000000 -n 4 -e 9999.970000
M 3.30000 4 (301.38, 372.92, 398.84), (354.47, 333.18), 2.45
M 3.60000 4 (301.96, 372.48, 398.84), (354.47, 333.18), 2.45
M 3.90000 4 (302.55, 372.04, 398.84), (354.47, 333.18), 2.45
N -t 4.000000 -n 0 -e 9999.948060
N -t 4.000000 -n 1 -e 9999.960000
N -t 4.000000 -n 2 -e 9999.960000
N -t 4.000000 -n 3 -e 9999.960000
N -t 4.000000 -n 4 -e 9999.960000
M 4.20000 4 (303.14, 371.60, 398.84), (354.47, 333.18), 2.45
M 4.50000 4 (303.72, 371.16, 398.84), (354.47, 333.18), 2.45
M 4.80000 4 (304.31, 370.72, 398.84), (354.47, 333.18), 2.45
r -t 5.000000000 -Hs 1 -Hd -2 -Ni 1 -Nx 100.00 -Ny 100.00 -Nz 500.00 -Ne 9999.960000 -Nl RTR -Nw --- -Ma 0 -Md 0 -Ms 0 -Mt 0 -Is 1.0 -Id 0.255 -It dbr -Il 400 -If 0 -Ii 1 -Iv 0 
N -t 5.000000 -n 0 -e 9999.938060
N -t 5.000000 -n 1 -e 9999.950000
N -t 5.000000 -n 2 -e 9999.950000
N -t 5.000000 -n 3 -e 9999.950000
N -t 5.000000 -n 4 -e 9999.950000
M 5.10000 4 (304.90, 370.28, 398.84), (354.47, 333.18), 2.45
M 5.40000 4 (305.49, 369.84, 398.84), (354.47, 333.18), 2.45
M 5.70000 4 (306.07, 369.40, 398.84), (354.47, 333.18), 2.45
M 6.00000 4 (306.66, 368.96, 398.84), (354.47, 333.18), 2.45
N -t 6.000000 -n 0 -e 9999.928060
N -t 6.000000 -n 1 -e 9999.928060
N -t 6.000000 -n 2 -e 9999.940000
N -t 6.000000 -n 3 -e 9999.940000
N -t 6.000000 -n 4 -e 9999.940000
M 6.30000 4 (307.25, 368.52, 398.84), (354.47, 333.18), 2.45
M 6.60000 4 (307.84, 368.09, 398.84), (354.47, 333.18), 2.45
M 6.90000 4 (308.42, 367.65, 398.84), (354.47, 333.18), 2.45
r -t 7.000000000 -Hs 2 -Hd -2 -Ni 2 -Nx 300.00 -Ny 300.00 -Nz 500.00 -Ne 9999.940000 -Nl RTR -Nw --- -Ma 0 -Md 0 -Ms 0 -Mt 0 -Is 2.0 -Id 0.255 -It dbr -Il 400 -If 0 -Ii 2 -Iv 0 
N -t 7.000000 -n 0 -e 9999.918060
N -t 7.000000 -n 1 -e 9999.918060
N -t 7.000000 -n 2 -e 9999.930000
N -t 7.000000 -n 3 -e 9999.930000
N -t 7.000000 -n 4 -e 9999.930000
M 7.20000 4 (309.01, 367.21, 398.84), (354.47, 333.18), 2.45
M 7.50000 4 (309.60, 366.77, 398.84), (354.47, 333.18), 2.45
M 7.80000 4 (310.19, 366.33, 398.84), (354.47, 333.18), 2.45
N -t 8.000000 -n 0 -e 9999.908060
N -t 8.000000 -n 1 -e 9999.908060
N -t 8.000000 -n 2 -e 9999.908060
N -t 8.000000 -n 3 -e 9999.920000
N -t 8.000000 -n 4 -e 9999.920000
M 8.10000 4 (310.77, 365.89, 398.84), (354.47, 333.18), 2.45
M 8.40000 4 (311.36, 365.45, 398.84), (354.47, 333.18), 2.45
M 8.70000 4 (311.95, 365.01, 398.84), (354.47, 333.18), 2.45
r -t 9.000000000 -Hs 3 -Hd -2 -Ni 3 -Nx 300.00 -Ny 100.00 -Nz 500.00 -Ne 9999.920000 -Nl RTR -Nw --- -Ma 0 -Md 0 -Ms 0 -Mt 0 -Is 3.0 -Id 0.255 -It dbr -Il 400 -If 0 -Ii 3 -Iv 0 
N -t 9.000000 -n 0 -e 9999.898060
N -t 9.000000 -n 1 -e 9999.898060
N -t 9.000000 -n 2 -e 9999.898060
N -t 9.000000 -n 3 -e 9999.910000
N -t 9.000000 -n 4 -e 9999.910000
M 9.00000 4 (312.54, 364