M 0.00000 4 (294.91, 377.76, 398.84), (354.47, 333.18), 2.45
M 0.30000 4 (295.50, 377.32, 398.84), (354.47, 333.18), 2.45
M 0.60000 4 (296.09, 376.88, 398.84), (354.47, 333.18), 2.45
M 0.90000 4 (296.68, 376.44, 398.84), (354.47, 333.18), 2.45
N -t 1.000000 -n 0 -e 9999.990000
N -t 1.000000 -n 1 -e 9999.990000
N -t 1.000000 -n 2 -e 9999.990000
N -t 1.000000 -n 3 -e 9999.990000
N -t 1.000000 -n 4 -e 9999.990000
M 1.20000 4 (297.26, 376.00, 398.84), (354.47, 333.18), 2.45
M 1.50000 4 (297.85, 375.56, 398.84), (354.47, 333.18), 2.45
M 1.80000 4 (298.44, 375.12, 398.84), (354.47, 333.18), 2.45
r -t 2.000000000 -Hs 0 -Hd -2 -Ni 0 -Nx 100.00 -Ny 300.00 -Nz 500.00 -Ne 9999.990000 -Nl RTR -Nw --- -Ma 0 -Md 0 -Ms 0 -Mt 0 -Is 0.0 -Id 0.255 -It dbr -Il 400 -If 0 -Ii 0 -Iv 0 
N -t 2.000000 -n 0 -e 9999.980000
N -t 2.000000 -n 1 -e 9999.980000
N -t 2.000000 -n 2 -e 9999.980000
N -t 2.000000 -n 3 -e 9999.980000
N -t 2.000000 -n 4 -e 9999.980000
M 2.10000 4 (299.03, 374.68, 398.84), (354.47, 333.18), 2.45
r -t 2.139383333 -Hs 1 -Hd -1 -Ni 1 -Nx 100.00 -Ny 100.00 -Nz 500.00 -Ne 9999.978066 -Nl RTR -Nw --- -Ma 0 -Md 0 -Ms ffff0008 -Mt 0 -Is 0.0 -Id 0.255 -It dbr -Il 60 -If 0 -Ii 0 -Iv 128 
r -t 2.139383333 -Hs 2 -Hd -1 -Ni 2 -Nx 300.00 -Ny 300.00 -Nz 500.00 -Ne 9999.978066 -Nl RTR -Nw --- -Ma 0 -Md 0 -Ms ffff0008 -Mt 0 -Is 0.0 -Id 0.255 -It dbr -Il 60 -If 0 -Ii 0 -Iv 128 
r -t 2.162916750 -Hs 4 -Hd -1 -Ni 4 -Nx 299.15 -Ny 374.59 -Nz 398.84 -Ne 9999.977831 -Nl RTR -Nw --- -Ma 0 -Md 0 -Ms ffff0008 -Mt 0 -Is 0.0 -Id 0.255 -It dbr -Il 60 -If 0 -Ii 0 -Iv 128 
r -t 2.194611808 -Hs 3 -Hd -1 -Ni 3 -Nx 300.00 -Ny 100.00 -Nz 500.00 -Ne 9999.977514 -Nl RTR -Nw --- -Ma 0 -Md 0 -Ms ffff0008 -Mt 0 -Is 0.0 -Id 0.255 -It dbr -Il 60 -If 0 -Ii 0 -Iv 128 
M 2.40000 4 (299.61, 374.24, 398.84), (354.47, 333.18), 2.45
M 2.70000 4 (300.20, 373.80, 398.84), (354.47, 333.18), 2.45
M 3.00000 4 (300.79, 373.36, 398.84), (354.47, 333.18), 2.45
N -t 3.000000 -n 0 -e 9999.958060
N -t 3.000000 -n 1 -e 9999.957520
N -t 3.000000 -n 2 -e 9999.957520
N -t 3.000000 -n 3 -e 9999.957514
N -t 3.000000 -n 4 -e 9999.969460
r -t 3.028777519 -Hs 4 -Hd -1 -Ni 4 -Nx 300.84 -Ny 373.32 -Nz 398.84 -Ne 9999.968632 -Nl RTR -Nw --- -Ma 0 -Md 2000000 -Ms ffff0008 -Mt 0 -Is 0.0 -Id 0.255 -It dbr -Il 60 -If 0 -Ii 0 -Iv 127 
r -t 3.181396263 -Hs 4 -Hd -1 -Ni 4 -Nx 301.14 -Ny 373.10 -Nz 398.84 -Ne 9999.966566 -Nl RTR -Nw --- -Ma 0 -Md 1000000 -Ms ffff0008 -Mt 0 -Is 0.0 -Id 0.255 -It dbr -Il 60 -If 0 -Ii 0 -Iv 127 
r -t 3.189223617 -Hs 0 -Hd -1 -Ni 0 -Nx 100.00 -Ny 300.00 -Nz 500.00 -Ne 9999.955088 -Nl RTR -Nw --- -Ma 0 -Md 3000000 -Ms ffff0008 -Mt 0 -Is 0.0 -Id 0.255 -It dbr -Il 60 -If 0 -Ii 0 -Iv 127 
d -t 3.189223617 -Hs 0 -Hd -1 -Ni 0 -Nx 100.00 -Ny 300.00 -Nz 500.00 -Ne 9999.955088 -Nl RTR -Nw LOOP -Ma 0 -Md 3000000 -Ms ffff0008 -Mt 0 -Is 0.0 -Id 0.255 -It dbr -Il 60 -If 0 -Ii 0 -Iv 127 
r -t 3.194986656 -Hs 4 -Hd -1 -Ni 4 -Nx 301.17 -Ny 373.08 -Nz 398.84 -Ne 9999.965890 -Nl RTR -Nw --- -Ma 0 -Md 3000000 -Ms ffff0008 -Mt 0 -Is 0.0 -Id 0.255 -It dbr -Il 60 -If 0 -Ii 0 -Iv 127 
M 3.30000 4 (301.38, 372.92, 398.84), (354.47, 333.18), 2.45
M 3.60000 4 (301.96, 372.48, 398.84), (354.47, 333.18), 2.45
M 3.90000 4 (302.55, 372.04, 398.84), (354.47, 333.18), 2.45
N -t 4.000000 -n 0 -e 9999.946980
N -t 4.000000 -n 1 -e 9999.946980
N -t 4.000000 -n 2 -e 9999.946980
N -t 4.000000 -n 3 -e 9999.946980
N -t 4.000000 -n 4 -e 9999.957840
M 4.20000 4 (303.14, 371.60, 398.84), (354.47, 333.18), 2.45
M 4.50000 4 (303.72, 371.16, 398.84), (354.47, 333.18), 2.45
M 4.80000 4 (304.31, 370.72, 398.84), (354.47, 333.18), 2.45
r -t 5.000000000 -Hs 1 -Hd -2 -Ni 1 -Nx 100.00 -Ny 100.00 -Nz 500.00 -Ne 9999.946980 -Nl RTR -Nw --- -Ma 0 -Md 0 -Ms 0 -Mt 0 -Is 1.0 -Id 0.255 -It dbr -Il 400 -If 0 -Ii 1 -Iv 0 
N -t 5.000000 -n 0 -e 9999.936980
N -t 5.000000 -n 1 -e 9999.936980
N -t 5.000000 -n 2 -e 9999.936980
N -t 5.000000 -n 3 -e 9999.936980
N -t 5.000000 -n 4 -e 9999.947840
M 5.10000 4 (304.90, 370.28, 398.84), (354.47, 333.18), 2.45
r -t 5.139383333 -Hs 0 -Hd -1 -Ni 0 -Nx 100.00 -Ny 300.00 -Nz 500.00 -Ne 9999.935046 -Nl RTR -Nw --- -Ma 0 -Md 1000000 -Ms ffff0008 -Mt 0 -Is 1.0 -Id 0.255 -It dbr -Il 60 -If 0 -Ii 1 -Iv 128 
r -t 5.139383333 -Hs 3 -Hd -1 -Ni 3 -Nx 300.00 -Ny 100.00 -Nz 500.00 -Ne 9999.935046 -Nl RTR -Nw --- -Ma 0 -Md 1000000 -Ms ffff0008 -Mt 0 -Is 1.0 -Id 0.255 -It dbr -Il 60 -If 0 -Ii 1 -Iv 128 
d -t 5.139383333 -Hs 3 -Hd -1 -Ni 3 -Nx 300.00 -Ny 100.00 -Nz 500.00 -Ne 9999.935046 -Nl RTR -Nw TTL -Ma 0 -Md 1000000 -Ms ffff0008 -Mt 0 -Is 1.0 -Id 0.255 -It dbr -Il 60 -If 0 -Ii 1 -Iv 127 
r -t 5.194611808 -Hs 2 -Hd -1 -Ni 2 -Nx 300.00 -Ny 300.00 -Nz 500.00 -Ne 9999.934494 -Nl RTR -Nw --- -Ma 0 -Md 1000000 -Ms ffff0008 -Mt 0 -Is 1.0 -Id 0.255 -It dbr -Il 60 -If 0 -Ii 1 -Iv 128 
d -t 5.194611808 -Hs 2 -Hd -1 -Ni 2 -Nx 300.00 -Ny 300.00 -Nz 500.00 -Ne 9999.934494 -Nl RTR -Nw TTL -Ma 0 -Md 1000000 -Ms ffff0008 -Mt 0 -Is 1.0 -Id 0.255 -It dbr -Il 60 -If 0 -Ii 1 -Iv 127 
r -t 5.242006334 -Hs 4 -Hd -1 -Ni 4 -Nx 305.18 -Ny 370.08 -Nz 398.84 -Ne 9999.944880 -Nl RTR -Nw --- -Ma 0 -Md 1000000 -Ms ffff0008 -Mt 0 -Is 1.0 -Id 0.255 -It dbr -Il 60 -If 0 -Ii 1 -Iv 128 
M 5.40000 4 (305.49, 369.84, 398.84), (354.47, 333.18), 2.45
M 5.70000 4 (306.07, 369.40, 398.84), (354.47, 333.18), 2.45
M 6.00000 4 (306.66, 368.96, 398.84), (354.47, 333.18), 2.45
N -t 6.000000 -n 0 -e 9999.926440
N -t 6.000000 -n 1 -e 9999.915040
N -t 6.000000 -n 2 -e 9999.926440
N -t 6.000000 -n 3 -e 9999.926440
N -t 6.000000 -n 4 -e 9999.937300
M 6.30000 4 (307.25, 368.52, 398.84), (354.47, 333.18), 2.45
M 6.60000 4 (307.84, 368.09, 398.84), (354.47, 333.18), 2.45
M 6.90000 4 (308.42, 367.65, 398.84), (354.47, 333.18), 2.45
r -t 7.000000000 -Hs 2 -Hd -2 -Ni 2 -Nx 300.00 -Ny 300.00 -Nz 500.00 -Ne 9999.926440 -Nl RTR -Nw --- -Ma 0 -Md 0 -Ms 0 -Mt 0 -Is 2.0 -Id 0.255 -It dbr -Il 400 -If 0 -Ii 2 -Iv 0 
N -t 7.000000 -n 0 -e 9999.916440
N -t 7.000000 -n 1 -e 9999.905040
N -t 7.000000 -n 2 -e 9999.916440
N -t 7.000000 -n 3 -e 9999.916440
N -t 7.000000 -n 4 -e 9999.927300
r -t 7.087329072 -Hs 4 -Hd -1 -Ni 4 -Nx 308.79 -Ny 367.37 -Nz 398.84 -Ne 9999.925887 -Nl RTR -Nw --- -Ma 0 -Md 2000000 -Ms ffff0008 -Mt 0 -Is 2.0 -Id 0.255 -It dbr -Il 60 -If 0 -Ii 2 -Iv 128 
r -t 7.139383333 -Hs 0 -Hd -1 -Ni 0 -Nx 100.00 -Ny 300.00 -Nz 500.00 -Ne 9999.914506 -Nl RTR -Nw --- -Ma 0 -Md 2000000 -Ms ffff0008 -Mt 0 -Is 2.0 -Id 0.255 -It dbr -Il 60 -If 0 -Ii 2 -Iv 128 
d -t 7.139383333 -Hs 0 -Hd -1 -Ni 0 -Nx 100.00 -Ny 300.00 -Nz 500.00 -Ne 9999.914506 -Nl RTR -Nw TTL -Ma 0 -Md 2000000 -Ms ffff0008 -Mt 0 -Is 2.0 -Id 0.255 -It dbr -Il 60 -If 0 -Ii 2 -Iv 128 
r -t 7.139383333 -Hs 3 -Hd -1 -Ni 3 -Nx 300.00 -Ny 100.00 -Nz 500.00 -Ne 9999.914506 -Nl RTR -Nw --- -Ma 0 -Md 2000000 -Ms ffff0008 -Mt 0 -Is 2.0 -Id 0.255 -It dbr -Il 60 -If 0 -Ii 2 -Iv 128 
d -t 7.139383333 -Hs 3 -Hd -1 -Ni 3 -Nx 300.00 -Ny 100.00 -Nz 500.00 -Ne 9999.914506 -Nl RTR -Nw TTL -Ma 0 -Md 2000000 -Ms ffff0008 -Mt 0 -Is 2.0 -Id 0.255 -It dbr -Il 60 -If 0 -Ii 2 -Iv 127 
r -t 7.194611808 -Hs 1 -Hd -1 -Ni 1 -Nx 100.00 -Ny 100.00 -Nz 500.00 -Ne 9999.902554 -Nl RTR -Nw --- -Ma 0 -Md 2000000 -Ms ffff0008 -Mt 0 -Is 2.0 -Id 0.255 -It dbr -Il 60 -If 0 -Ii 2 -Iv 128 
d -t 7.194611808 -Hs 1 -Hd -1 -Ni 1 -Nx 100.00 -Ny 100.00 -Nz 500.00 -Ne 9999.902554 -Nl RTR -Nw TTL -Ma 0 -Md 2000000 -Ms ffff0008 -Mt 0 -Is 2.0 -Id 0.255 -It dbr -Il 60 -If 0 -Ii 2 -Iv 127 
M 7.20000 4 (309.01, 367.21, 398.84), (354.47, 333.18), 2.45
M 7.50000 4 (309.60, 366.77, 398.84), (354.47, 333.18), 2.45
M 7.80000 4 (310.19, 366.33, 398.84), (354.47, 333.18), 2.45
N -t 8.000000 -n 0 -e 9999.905900
N -t 8.000000 -n 1 -e 9999.894500
N -t 8.000000 -n 2 -e 9999.894500
N -t 8.000000 -n 3 -e 9999.905900
N -t 8.000000 -n 4 -e 9999.916760
M 8.10000 4 (310.77, 365.89, 398.84), (354.47, 333.18), 2.45
M 8.40000 4 (311.36, 365.45, 398.84), (354.47, 333.18), 2.45
M 8.70000 4 (311.95, 365.01, 398.84), (354.47, 333.18), 2.45
r -t 9.000000000 -Hs 3 -Hd -2 -Ni 3 -Nx 300.00 -Ny 100.00 -Nz 500.00 -Ne 9999.905900 -Nl RTR -Nw --- -Ma 0 -Md 0 -Ms 0 -Mt 0 -Is 3.0 -Id 0.255 -It dbr -Il 400 -If 0 -Ii 3 -Iv 0 
N -t 9.000000 -n 0 -e 9999.895900
N -t 9.000000 -n 1 -e 9999.884500
N -t 9.000000 -n 2 -e 9999.884500
N -t 9.000000 -n 3 -e 9999.895900
N -t 9.000000 -n 4 -e 9999.906760
M 9.00000 4 (312.54, 364.57, 398.84), (354.47, 333.18), 2.45
r -t 9.139383333 -Hs 2 -Hd -1 -Ni 2 -Nx 300.00 -Ny 300.00 -Nz 500.00 -Ne 9999.882566 -Nl RTR -Nw --- -Ma 0 -Md 3000000 -Ms ffff0008 -Mt 0 -Is 3.0 -Id 0.255 -It dbr -Il 60 -If 0 -Ii 3 -Iv 128 
d -t 9.139383333 -Hs 2 -Hd -1 -Ni 2 -Nx 300.00 -Ny 300.00 -Nz 500.00 -Ne 9999.882566 -Nl RTR -Nw TTL -Ma 0 -Md 3000000 -Ms ffff0008 -Mt 0 -Is 3.0 -Id 0.255 -It dbr -Il 60 -If 0 -Ii 3 -Iv 127 
r -t 9.139383333 -Hs 1 -Hd -1 -Ni 1 -Nx 100.00 -Ny 100.00 -Nz 500.00 -Ne 9999.882566 -Nl RTR -Nw --- -Ma 0 -Md 3000000 -Ms ffff0008 -Mt 0 -Is 3.0 -Id 0.255 -It dbr -Il 60 -If 0 -Ii 3 -Iv 128 
d -t 9.139383333 -Hs 1 -Hd -1 -Ni 1 -Nx 100.00 -Ny 100.00 -Nz 500.00 -Ne 9999.882566 -Nl RTR -Nw TTL -Ma 0 -Md 3000000 -Ms ffff0008 -Mt 0 -Is 3.0 -Id 0.255 -It dbr -Il 60 -If 0 -Ii 3 -Iv 127 
r -t 9.194611808 -Hs 0 -Hd -1 -Ni 0 -Nx 100.00 -Ny 300.00 -Nz 500.00 -Ne 9999.893414 -Nl RTR -Nw --- -Ma 0 -Md 3000000 -Ms ffff0008 -Mt 0 -Is 3.0 -Id 0.255 -It dbr -Il 60 -If 0 -Ii 3 -Iv 128 
d -t 9.194611808 -Hs 0 -Hd -1 -Ni 0 -Nx 100.00 -Ny 300.00 -Nz 500.00 -Ne 9999.893414 -Nl RTR -Nw TTL -Ma 0 -Md 3000000 -Ms ffff0008 -Mt 0 -Is 3.0 -Id 0.255 -It dbr -Il 60 -If 0 -Ii 3 -Iv 128 
r -t 9.195067323 -Hs 4 -Hd -1 -Ni 4 -Nx 312.92 -Ny 364.28 -Nz 398.84 -Ne 9999.904270 -Nl RTR -Nw --- -Ma 0 -Md 3000000 -Ms ffff0008 -Mt 0 -Is 3.0 -Id 0.255 -It dbr -Il 60 -If 0 -Ii 3 -Iv 128 
M 9.30000 4 (313.12, 364.13, 398.84), (354.47, 333.18), 2.45
M 9.60000 4 (313.71, 363.69, 398.84), (354.47, 333.18), 2.45
M 9.90000 4 (314.30, 363.25, 398.84), (354.47, 333.18), 2.45
N -t 10.000000 -n 0 -e 9999.885360
N -t 10.000000 -n 1 -e 9999.873960
N -t 10.000000 -n 2 -e 9999.873960
N -t 10.000000 -n 3 -e 9999.873960
N -t 10.000000 -n 4 -e 9999.896220
M 10.20000 4 (314.88, 362.81, 398.84), (354.47, 333.18), 2.45
M 10.50000 4 (315.47, 362.37, 398.84), (354.47, 333.18), 2.45
M 10.80000 4 (316.06, 361.93, 398.84), (354.47, 333.18), 2.45
N -t 11.000000 -n 0 -e 9999.875360
N -t 11.000000 -n 1 -e 9999.863960
N -t 11.000000 -n 2 -e 9999.863960
N -t 11.000000 -n 3 -e 9999.863960
N -t 11.000000 -n 4 -e 9999.886220
M 11.10000 4 (316.65, 361.49, 398.84), (354.47, 333.18), 2.45
M 11.40000 4 (317.23, 361.05, 398.84), (354.47, 333.18), 2.45
M 11.70000 4 (317.82, 360.61, 398.84), (354.47, 333.18), 2.45
r -t 12.000000000 -Hs 0 -Hd -2 -Ni 0 -Nx 100.00 -Ny 300.00 -Nz 500.00 -Ne 9999.875360 -Nl RTR -Nw --- -Ma 0 -Md 0 -Ms 0 -Mt 0 -Is 0.0 -Id 0.255 -It dbr -Il 400 -If 0 -Ii 4 -Iv 0 
N -t 12.000000 -n 0 -e 9999.865360
N -t 12.000000 -n 1 -e 9999.853960
N -t 12.000000 -n 2 -e 9999.853960
N -t 12.000000 -n 3 -e 9999.853960
N -t 12.000000 -n 4 -e 9999.876220
M 12.00000 4 (318.41, 360.17, 398.84), (354.47, 333.18), 2.45
r -t 12.139383333 -Hs 1 -Hd -1 -Ni 1 -Nx 100.00 -Ny 100.00 -Nz 500.00 -Ne 9999.852026 -Nl RTR -Nw --- -Ma 0 -Md 0 -Ms ffff0008 -Mt 0 -Is 0.0 -Id 0.255 -It dbr -Il 60 -If 0 -Ii 4 -Iv 128 
r -t 12.139383333 -Hs 2 -Hd -1 -Ni 2 -Nx 300.00 -Ny 300.00 -Nz 500.00 -Ne 9999.852026 -Nl RTR -Nw --- -Ma 0 -Md 0 -Ms ffff0008 -Mt 0 -Is 0.0 -Id 0.255 -It dbr -Il 60 -If 0 -Ii 4 -Iv 128 
r -t 12.171454154 -Hs 4 -Hd -1 -Ni 4 -Nx 318.74 -Ny 359.92 -Nz 398.84 -Ne 9999.873966 -Nl RTR -Nw --- -Ma 0 -Md 0 -Ms ffff0008 -Mt 0 -Is 0.0 -Id 0.255 -It dbr -Il 60 -If 0 -Ii 4 -Iv 128 
r -t 12.194611808 -Hs 3 -Hd -1 -Ni 3 -Nx 300.00 -Ny 100.00 -Nz 500.00 -Ne 9999.851474 -Nl RTR -Nw --- -Ma 0 -Md 0 -Ms ffff0008 -Mt 0 -Is 0.0 -Id 0.255 -It dbr -Il 60 -If 0 -Ii 4 -Iv 128 
M 12.30000 4 (319.00, 359.73, 398.84), (354.47, 333.18), 2.45
M 12.60000 4 (319.58, 359.29, 398.84), (354.47, 333.18), 2.45
M 12.90000 4 (320.17, 358.85, 398.84), (354.47, 333.18), 2.45
N -t 13.000000 -n 0 -e 9999.843420
N -t 13.000000 -n 1 -e 9999.831480
N -t 13.000000 -n 2 -e 9999.831480
N -t 13.000000 -n 3 -e 9999.831474
N -t 13.000000 -n 4 -e 9999.865680
r -t 13.024597134 -Hs 4 -Hd -1 -Ni 4 -Nx 320.41 -Ny 358.67 -Nz 398.84 -Ne 9999.864894 -Nl RTR -Nw --- -Ma 0 -Md 2000000 -Ms ffff0008 -Mt 0 -Is 0.0 -Id 0.255 -It dbr -Il 60 -If 0 -Ii 4 -Iv 127 
r -t 13.189223617 -Hs 0 -Hd -1 -Ni 0 -Nx 100.00 -Ny 300.00 -Nz 500.00 -Ne 9999.840448 -Nl RTR -Nw --- -Ma 0 -Md 3000000 -Ms ffff0008 -Mt 0 -Is 0.0 -Id 0.255 -It dbr -Il 60 -If 0 -Ii 4 -Iv 127 
d -t 13.189223617 -Hs 0 -Hd -1 -Ni 0 -Nx 100.00 -Ny 300.00 -Nz 500.00 -Ne 9999.840448 -Nl RTR -Nw LOOP -Ma 0 -Md 3000000 -Ms ffff0008 -Mt 0 -Is 0.0 -Id 0.255 -It dbr -Il 60 -If 0 -Ii 4 -Iv 127 
M 13.20000 4 (320.76, 358.41, 398.84), (354.47, 333.18), 2.45
M 13.50000 4 (321.35, 357.97, 398.84), (354.47, 333.18), 2.45
M 13.80000 4 (321.93, 357.53, 398.84), (354.47, 333.18), 2.45
N -t 14.000000 -n 0 -e 9999.832340
N -t 14.000000 -n 1 -e 9999.820940
N -t 14.000000 -n 2 -e 9999.820940
N -t 14.000000 -n 3 -e 9999.820940
N -t 14.000000 -n 4 -e 9999.854191
M 14.10000 4 (322.52, 357.09, 398.84), (354.47, 333.18), 2.45
M 14.40000 4 (323.11, 356.65, 398.84), (354.47, 333.18), 2.45
M 14.70000 4 (323.69, 356.21, 398.84), (354.47, 333.18), 2.45
r -t 15.000000000 -Hs 1 -Hd -2 -Ni 1 -Nx 100.00 -Ny 100.00 -Nz 500.00 -Ne 9999.820940 -Nl RTR -Nw --- -Ma 0 -Md 0 -Ms 0 -Mt 0 -Is 1.0 -Id 0.255 -It dbr -Il 400 -If 0 -Ii 5 -Iv 0 
N -t 15.000000 -n 0 -e 9999.822340
N -t 15.000000 -n 1 -e 9999.810940
N -t 15.000000 -n 2 -e 9999.810940
N -t 15.000000 -n 3 -e 9999.810940
N -t 15.000000 -n 4 -e 9999.844191
M 15.00000 4 (324.28, 355.77, 398.84), (354.47, 333.18), 2.45
r -t 15.139383333 -Hs 0 -Hd -1 -Ni 0 -Nx 100.00 -Ny 300.00 -Nz 500.00 -Ne 9999.820406 -Nl RTR -Nw --- -Ma 0 -Md 1000000 -Ms ffff0008 -Mt 0 -Is 1.0 -Id 0.255 -It dbr -Il 60 -If 0 -Ii 5 -Iv 128 
r -t 15.139383333 -Hs 3 -Hd -1 -Ni 3 -Nx 300.00 -Ny 100.00 -Nz 500.00 -Ne 9999.809006 -Nl RTR -Nw --- -Ma 0 -Md 1000000 -Ms ffff0008 -Mt 0 -Is 1.0 -Id 0.255 -It dbr -Il 60 -If 0 -Ii 5 -Iv 128 
d -t 15.139383333 -Hs 3 -Hd -1 -Ni 3 -Nx 300.00 -Ny 100.00 -Nz 500.00 -Ne 9999.809006 -Nl RTR -Nw TTL -Ma 0 -Md 1000000 -Ms ffff0008 -Mt 0 -Is 1.0 -Id 0.255 -It dbr -Il 60 -If 0 -Ii 5 -Iv 127 
r -t 15.194611808 -Hs 2 -Hd -1 -Ni 2 -Nx 300.00 -Ny 300.00 -Nz 500.00 -Ne 9999.808454 -Nl RTR -Nw --- -Ma 0 -Md 1000000 -Ms ffff0008 -Mt 0 -Is 1.0 -Id 0.255 -It dbr -Il 60 -If 0 -Ii 5 -Iv 128 
d -t 15.194611808 -Hs 2 -Hd -1 -Ni 2 -Nx 300.00 -Ny 300.00 -Nz 500.00 -Ne 9999.808454 -Nl RTR -Nw TTL -Ma 0 -Md 1000000 -Ms ffff0008 -Mt 0 -Is 1.0 -Id 0.255 -It dbr -Il 60 -If 0 -Ii 5 -Iv 127 
r -t 15.242652792 -Hs 4 -Hd -1 -Ni 4 -Nx 324.76 -Ny 355.42 -Nz 398.84 -Ne 9999.841225 -Nl RTR -Nw --- -Ma 0 -Md 1000000 -Ms ffff0008 -Mt 0 -Is 1.0 -Id 0.255 -It dbr -Il 60 -If 0 -Ii 5 -Iv 128 
M 15.30000 4 (324.87, 355.34, 398.84), (354.47, 333.18), 2.45
M 15.60000 4 (325.46, 354.90, 398.84), (354.47, 333.18), 2.45
M 15.90000 4 (326.04, 354.46, 398.84), (354.47, 333.18), 2.45
N -t 16.000000 -n 0 -e 9999.811800
N -t 16.000000 -n 1 -e 9999.789000
N -t 16.000000 -n 2 -e 9999.800400
N -t 16.000000 -n 3 -e 9999.800400
N -t 16.000000 -n 4 -e 9999.833651
M 16.20000 4 (326.63, 354.02, 398.84), (354.47, 333.18), 2.45
M 16.50000 4 (327.22, 353.58, 398.84), (354.47, 333.18), 2.45
M 16.80000 4 (327.81, 353.14, 398.84), (354.47, 333.18), 2.45
r -t 17.000000000 -Hs 2 -Hd -2 -Ni 2 -Nx 300.00 -Ny 300.00 -Nz 500.00 -Ne 9999.800400 -Nl RTR -Nw --- -Ma 0 -Md 0 -Ms 0 -Mt 0 -Is 2.0 -Id 0.255 -It dbr -Il 400 -If 0 -Ii 6 -Iv 0 
N -t 17.000000 -n 0 -e 9999.801800
N -t 17.000000 -n 1 -e 9999.779000
N -t 17.000000 -n 2 -e 9999.790400
N -t 17.000000 -n 3 -e 9999.790400
N -t 17.000000 -n 4 -e 9999.823651
r -t 17.084426147 -Hs 4 -Hd -1 -Ni 4 -Nx 328.36 -Ny 352.72 -Nz 398.84 -Ne 9999.822267 -Nl RTR -Nw --- -Ma 0 -Md 2000000 -Ms ffff0008 -Mt 0 -Is 2.0 -Id 0.255 -It dbr -Il 60 -If 0 -Ii 6 -Iv 128 
M 17.10000 4 (328.39, 352.70, 398.84), (354.47, 333.18), 2.45
r -t 17.139383333 -Hs 0 -Hd -1 -Ni 0 -Nx 100.00 -Ny 300.00 -Nz 500.00 -Ne 9999.799866 -Nl RTR -Nw --- -Ma 0 -Md 2000000 -Ms ffff0008 -Mt 0 -Is 2.0 -Id 0.255 -It dbr -Il 60 -If 0 -Ii 6 -Iv 128 
d -t 17.139383333 -Hs 0 -Hd -1 -Ni 0 -Nx 100.00 -Ny 300.00 -Nz 500.00 -Ne 9999.799866 -Nl RTR -Nw TTL -Ma 0 -Md 2000000 -Ms ffff0008 -Mt 0 -Is 2.0 -Id 0.255 -It dbr -Il 60 -If 0 -Ii 6 -Iv 128 
r -t 17.139383333 -Hs 3 -Hd -1 -Ni 3 -Nx 300.00 -Ny 100.00 -Nz 500.00 -Ne 9999.788466 -Nl RTR -Nw --- -Ma 0 -Md 2000000 -Ms ffff0008 -Mt 0 -Is 2.0 -Id 0.255 -It dbr -Il 60 -If 0 -Ii 6 -Iv 128 
d -t 17.139383333 -Hs 3 -Hd -1 -Ni 3 -Nx 300.00 -Ny 100.00 -Nz 500.00 -Ne 9999.788466 -Nl RTR -Nw TTL -Ma 0 -Md 2000000 -Ms ffff0008 -Mt 0 -Is 2.0 -Id 0.255 -It dbr -Il 60 -If 0 -Ii 6 -Iv 127 
r -t 17.194611808 -Hs 1 -Hd -1 -Ni 1 -Nx 100.00 -Ny 100.00 -Nz 500.00 -Ne 9999.776514 -Nl RTR -Nw --- -Ma 0 -Md 2000000 -Ms ffff0008 -Mt 0 -Is 2.0 -Id 0.255 -It dbr -Il 60 -If 0 -Ii 6 -Iv 128 
d -t 17.194611808 -Hs 1 -Hd -1 -Ni 1 -Nx 100.00 -Ny 100.00 -Nz 500.00 -Ne 9999.776514 -Nl RTR -Nw TTL -Ma 0 -Md 2000000 -Ms ffff0008 -Mt 0 -Is 2.0 -Id 0.255 -It dbr -Il 60 -If 0 -Ii 6 -Iv 127 
M 17.40000 4 (328.98, 352.26, 398.84), (354.47, 333.18), 2.45
M 17.70000 4 (329.57, 351.82, 398.84), (354.47, 333.18), 2.45
N -t 18.000000 -n 0 -e 9999.791260
N -t 18.000000 -n 1 -e 9999.768460
N -t 18.000000 -n 2 -e 9999.768460
N -t 18.000000 -n 3 -e 9999.779860
N -t 18.000000 -n 4 -e 9999.813111
M 18.00000 4 (330.16, 351.38, 398.84), (354.47, 333.18), 2.45
M 18.30000 4 (330.74, 350.94, 398.84), (354.47, 333.18), 2.45
M 18.60000 4 (331.33, 350.50, 398.84), (354.47, 333.18), 2.45
M 18.90000 4 (331.92, 350.06, 398.84), (354.47, 333.18), 2.45
r -t 19.000000000 -Hs 3 -Hd -2 -Ni 3 -Nx 300.00 -Ny 100.00 -Nz 500.00 -Ne 9999.779860 -Nl RTR -Nw --- -Ma 0 -Md 0 -Ms 0 -Mt 0 -Is 3.0 -Id 0.255 -It dbr -Il 400 -If 0 -Ii 7 -Iv 0 
N -t 19.000000 -n 0 -e 9999.781260
N -t 19.000000 -n 1 -e 9999.758460
N -t 19.000000 -n 2 -e 9999.758460
N -t 19.000000 -n 3 -e 9999.769860
N -t 19.000000 -n 4 -e 9999.803111
r -t 19.139383333 -Hs 2 -Hd -1 -Ni 2 -Nx 300.00 -Ny 300.00 -Nz 500.00 -Ne 9999.756526 -Nl RTR -Nw --- -Ma 0 -Md 3000000 -Ms ffff0008 -Mt 0 -Is 3.0 -Id 0.255 -It dbr -Il 60 -If 0 -Ii 7 -Iv 128 
d -t 19.139383333 -Hs 2 -Hd -1 -Ni 2 -Nx 300.00 -Ny 300.00 -Nz 500.00 -Ne 9999.756526 -Nl RTR -Nw TTL -Ma 0 -Md 3000000 -Ms ffff0008 -Mt 0 -Is 3.0 -Id 0.255 -It dbr -Il 60 -If 0 -Ii 7 -Iv 127 
r -t 19.139383333 -Hs 1 -Hd -1 -Ni 1 -Nx 100.00 -Ny 100.00 -Nz 500.00 -Ne 9999.756526 -Nl RTR -Nw --- -Ma 0 -Md 3000000 -Ms ffff0008 -Mt 0 -Is 3.0 -Id 0.255 -It dbr -Il 60 -If 0 -Ii 7 -Iv 128 
d -t 19.139383333 -Hs 1 -Hd -1 -Ni 1 -Nx 100.00 -Ny 100.00 -Nz 500.00 -Ne 9999.756526 -Nl RTR -Nw TTL -Ma 0 -Md 3000000 -Ms ffff0008 -Mt 0 -Is 3.0 -Id 0.255 -It dbr -Il 60 -If 0 -Ii 7 -Iv 127 
r -t 19.187061188 -Hs 4 -Hd -1 -Ni 4 -Nx 332.48 -Ny 349.64 -Nz 398.84 -Ne 9999.800701 -Nl RTR -Nw --- -Ma 0 -Md 3000000 -Ms ffff0008 -Mt 0 -Is 3.0 -Id 0.255 -It dbr -Il 60 -If 0 -Ii 7 -Iv 128 
r -t 19.194611808 -Hs 0 -Hd -1 -Ni 0 -Nx 100.00 -Ny 300.00 -Nz 500.00 -Ne 9999.778774 -Nl RTR -Nw --- -Ma 0 -Md 3000000 -Ms ffff0008 -Mt 0 -Is 3.0 -Id 0.255 -It dbr -Il 60 -If 0 -Ii 7 -Iv 128 
d -t 19.194611808 -Hs 0 -Hd -1 -Ni 0 -Nx 100.00 -Ny 300.00 -Nz 500.00 -Ne 9999.778774 -Nl RTR -Nw TTL -Ma 0 -Md 3000000 -Ms ffff0008 -Mt 0 -Is 3.0 -Id 0.255 -It dbr -Il 60 -If 0 -Ii 7 -Iv 128 
M 19.20000 4 (332.51, 349.62, 398.84), (354.47, 333.18), 2.45
M 19.50000 4 (333.09, 349.18, 398.84), (354.47, 333.18), 2.45
M 19.80000 4 (333.68, 348.74, 398.84), (354.47, 333.18), 2.45
N -t 20.000000 -n 0 -e 9999.770720
N -t 20.000000 -n 1 -e 9999.747920
N -t 20.000000 -n 2 -e 9999.747920
N -t 20.000000 -n 3 -e 9999.747920
N -t 20.000000 -n 4 -e 9999.792571
M 20.10000 4 (334.27, 348.30, 398.84), (354.47, 333.18), 2.45
M 20.40000 4 (334.85, 347.86, 398.84), (354.47, 333.18), 2.45
M 20.70000 4 (335.44, 347.42, 398.84), (354.47, 333.18), 2.45
N -t 21.000000 -n 0 -e 9999.760720
N -t 21.000000 -n 1 -e 9999.737920
N -t 21.000000 -n 2 -e 9999.737920
N -t 21.000000 -n 3 -e 9999.737920
N -t 21.000000 -n 4 -e 9999.782571
M 21.00000 4 (336.03, 346.98, 398.84), (354.47, 333.18), 2.45
M 21.30000 4 (336.62, 346.54, 398.84), (354.47, 333.18), 2.45
M 21.60000 4 (337.20, 346.10, 398.84), (354.47, 333.18), 2.45
M 21.90000 4 (337.79, 345.66, 398.84), (354.47, 333.18), 2.45
r -t 22.000000000 -Hs 0 -Hd -2 -Ni 0 -Nx 100.00 -Ny 300.00 -Nz 500.00 -Ne 9999.760720 -Nl RTR -Nw --- -Ma 0 -Md 0 -Ms 0 -Mt 0 -Is 0.0 -Id 0.255 -It dbr -Il 400 -If 0 -Ii 8 -Iv 0 
N -t 22.000000 -n 0 -e 9999.750720
N -t 22.000000 -n 1 -e 9999.727920
N -t 22.000000 -n 2 -e 9999.727920
N -t 22.000000 -n 3 -e 9999.727920
N -t 22.000000 -n 4 -e 9999.772571
r -t 22.139383333 -Hs 1 -Hd -1 -Ni 1 -Nx 100.00 -Ny 100.00 -Nz 500.00 -Ne 9999.725986 -Nl RTR -Nw --- -Ma 0 -Md 0 -Ms ffff0008 -Mt 0 -Is 0.0 -Id 0.255 -It dbr -Il 60 -If 0 -Ii 8 -Iv 128 
r -t 22.139383333 -Hs 2 -Hd -1 -Ni 2 -Nx 300.00 -Ny 300.00 -Nz 500.00 -Ne 9999.725986 -Nl RTR -Nw --- -Ma 0 -Md 0 -Ms ffff0008 -Mt 0 -Is 0.0 -Id 0.255 -It dbr -Il 60 -If 0 -Ii 8 -Iv 128 
r -t 22.181097227 -Hs 4 -Hd -1 -Ni 4 -Nx 338.34 -Ny 345.25 -Nz 398.84 -Ne 9999.770221 -Nl RTR -Nw --- -Ma 0 -Md 0 -Ms ffff0008 -Mt 0 -Is 0.0 -Id 0.255 -It dbr -Il 60 -If 0 -Ii 8 -Iv 128 
r -t 22.194611808 -Hs 3 -Hd -1 -Ni 3 -Nx 300.00 -Ny 100.00 -Nz 500.00 -Ne 9999.725434 -Nl RTR -Nw --- -Ma 0 -Md 0 -Ms ffff0008 -Mt 0 -Is 0.0 -Id 0.255 -It dbr -Il 60 -If 0 -Ii 8 -Iv 128 
M 22.20000 4 (338.38, 345.22, 398.84), (354.47, 333.18), 2.45
M 22.50000 4 (338.97, 344.78, 398.84), (354.47, 333.18), 2.45
M 22.80000 4 (339.55, 344.34, 398.84), (354.47, 333.18), 2.45
N -t 23.000000 -n 0 -e 9999.728780
N -t 23.000000 -n 1 -e 9999.705440
N -t 23.000000 -n 2 -e 9999.705440
N -t 23.000000 -n 3 -e 9999.705434
N -t 23.000000 -n 4 -e 9999.762031
r -t 23.023658661 -Hs 4 -Hd -1 -Ni 4 -Nx 339.99 -Ny 344.02 -Nz 398.84 -Ne 9999.761255 -Nl RTR -Nw --- -Ma 0 -Md 2000000 -Ms ffff0008 -Mt 0 -Is 0.0 -Id 0.255 -It dbr -Il 60 -If 0 -Ii 8 -Iv 127 
M 23.10000 4 (340.14, 343.90, 398.84), (354.47, 333.18), 2.45
r -t 23.189223617 -Hs 0 -Hd -1 -Ni 0 -Nx 100.00 -Ny 300.00 -Nz 500.00 -Ne 9999.725808 -Nl RTR -Nw --- -Ma 0 -Md 3000000 -Ms ffff0008 -Mt 0 -Is 0.0 -Id 0.255 -It dbr -Il 60 -If 0 -Ii 8 -Iv 127 
d -t 23.189223617 -Hs 0 -Hd -1 -Ni 0 -Nx 100.00 -Ny 300.00 -Nz 500.00 -Ne 9999.725808 -Nl RTR -Nw LOOP -Ma 0 -Md 3000000 -Ms ffff0008 -Mt 0 -Is 0.0 -Id 0.255 -It dbr -Il 60 -If 0 -Ii 8 -Iv 127 
M 23.40000 4 (340.73, 343.46, 398.84), (354.47, 333.18), 2.45
M 23.70000 4 (341.32, 343.02, 398.84), (354.47, 333.18), 2.45
N -t 24.000000 -n 0 -e 9999.717700
N -t 24.000000 -n 1 -e 9999.694900
N -t 24.000000 -n 2 -e 9999.694900
N -t 24.000000 -n 3 -e 9999.694900
N -t 24.000000 -n 4 -e 9999.750542
M 24.00000 4 (341.90, 342.59, 398.84), (354.47, 333.18), 2.45
M 24.30000 4 (342.49, 342.15, 398.84), (354.47, 333.18), 2.45
M 24.60000 4 (343.08, 341.71, 398.84), (354.47, 333.18), 2.45
M 24.90000 4 (343.67, 341.27, 398.84), (354.47, 333.18), 2.45
r -t 25.000000000 -Hs 1 -Hd -2 -Ni 1 -Nx 100.00 -Ny 100.00 -Nz 500.00 -Ne 9999.694900 -Nl RTR -Nw --- -Ma 0 -Md 0 -Ms 0 -Mt 0 -Is 1.0 -Id 0.255 -It dbr -Il 400 -If 0 -Ii 9 -Iv 0 
N -t 25.000000 -n 0 -e 9999.707700
N -t 25.000000 -n 1 -e 9999.684900
N -t 25.000000 -n 2 -e 9999.684900
N -t 25.000000 -n 3 -e 9999.684900
N -t 25.000000 -n 4 -e 9999.740542
r -t 25.139383333 -Hs 0 -Hd -1 -Ni 0 -Nx 100.00 -Ny 300.00 -Nz 500.00 -Ne 9999.705766 -Nl RTR -Nw --- -Ma 0 -Md 1000000 -Ms ffff0008 -Mt 0 -Is 1.0 -Id 0.255 -It dbr -Il 60 -If 0 -Ii 9 -Iv 128 
r -t 25.139383333 -Hs 3 -Hd -1 -Ni 3 -Nx 300.00 -Ny 100.00 -Nz 500.00 -Ne 9999.682966 -Nl RTR -Nw --- -Ma 0 -Md 1000000 -Ms ffff0008 -Mt 0 -Is 1.0 -Id 0.255 -It dbr -Il 60 -If 0 -Ii 9 -Iv 128 
d -t 25.139383333 -Hs 3 -Hd -1 -Ni 3 -Nx 300.00 -Ny 100.00 -Nz 500.00 -Ne 9999.682966 -Nl RTR -Nw TTL -Ma 0 -Md 1000000 -Ms ffff0008 -Mt 0 -Is 1.0 -Id 0.255 -It dbr -Il 60 -If 0 -Ii 9 -Iv 127 
r -t 25.194611808 -Hs 2 -Hd -1 -Ni 2 -Nx 300.00 -Ny 300.00 -Nz 500.00 -Ne 9999.682414 -Nl RTR -Nw --- -Ma 0 -Md 1000000 -Ms ffff0008 -Mt 0 -Is 1.0 -Id 0.255 -It dbr -Il 60 -If 0 -Ii 9 -Iv 128 
d -t 25.194611808 -Hs 2 -Hd -1 -Ni 2 -Nx 300.00 -Ny 300.00 -Nz 500.00 -Ne 9999.682414 -Nl RTR -Nw TTL -Ma 0 -Md 1000000 -Ms ffff0008 -Mt 0 -Is 1.0 -Id 0.255 -It dbr -Il 60 -If 0 -Ii 9 -Iv 127 
M 25.20000 4 (344.25, 340.83, 398.84), (354.47, 333.18), 2.45
r -t 25.244415290 -Hs 4 -Hd -1 -Ni 4 -Nx 344.34 -Ny 340.76 -Nz 398.84 -Ne 9999.737558 -Nl RTR -Nw --- -Ma 0 -Md 1000000 -Ms ffff0008 -Mt 0 -Is 1.0 -Id 0.255 -It dbr -Il 60 -If 0 -Ii 9 -Iv 128 
M 25.50000 4 (344.84, 340.39, 398.84), (354.47, 333.18), 2.45
M 25.80000 4 (345.43, 339.95, 398.84), (354.47, 333.18), 2.45
N -t 26.000000 -n 0 -e 9999.697160
N -t 26.000000 -n 1 -e 9999.662960
N -t 26.000000 -n 2 -e 9999.674360
N -t 26.000000 -n 3 -e 9999.674360
N -t 26.000000 -n 4 -e 9999.730002
M 26.10000 4 (346.01, 339.51, 398.84), (354.47, 333.18), 2.45
M 26.40000 4 (346.60, 339.07, 398.84), (354.47, 333.18), 2.45
M 26.70000 4 (347.19, 338.63, 398.84), (354.47, 333.18), 2.45
r -t 27.000000000 -Hs 2 -Hd -2 -Ni 2 -Nx 300.00 -Ny 300.00 -Nz 500.00 -Ne 9999.674360 -Nl RTR -Nw --- -Ma 0 -Md 0 -Ms 0 -Mt 0 -Is 2.0 -Id 0.255 -It dbr -Il 400 -If 0 -Ii 10 -Iv 0 
N -t 27.000000 -n 0 -e 9999.687160
N -t 27.000000 -n 1 -e 9999.652960
N -t 27.000000 -n 2 -e 9999.664360
N -t 27.000000 -n 3 -e 9999.664360
N -t 27.000000 -n 4 -e 9999.720002
M 27.00000 4 (347.78, 338.19, 398.84), (354.47, 333.18), 2.45
r -t 27.084859860 -Hs 4 -Hd -1 -Ni 4 -Nx 347.94 -Ny 338.06 -Nz 398.84 -Ne 9999.718613 -Nl RTR -Nw --- -Ma 0 -Md 2000000 -Ms ffff0008 -Mt 0 -Is 2.0 -Id 0.255 -It dbr -Il 60 -If 0 -Ii 10 -Iv 128 
r -t 27.139383333 -Hs 0 -Hd -1 -Ni 0 -Nx 100.00 -Ny 300.00 -Nz 500.00 -Ne 9999.685226 -Nl RTR -Nw --- -Ma 0 -Md 2000000 -Ms ffff0008 -Mt 0 -Is 2.0 -Id 0.255 -It dbr -Il 60 -If 0 -Ii 10 -Iv 128 
d -t 27.139383333 -Hs 0 -Hd -1 -Ni 0 -Nx 100.00 -Ny 300.00 -Nz 500.00 -Ne 9999.685226 -Nl RTR -Nw TTL -Ma 0 -Md 2000000 -Ms ffff0008 -Mt 0 -Is 2.0 -Id 0.255 -It dbr -Il 60 -If 0 -Ii 10 -Iv 128 
r -t 27.139383333 -Hs 3 -Hd -1 -Ni 3 -Nx 300.00 -Ny 100.00 -Nz 500.00 -Ne 9999.662426 -Nl RTR -Nw --- -Ma 0 -Md 2000000 -Ms ffff0008 -Mt 0 -Is 2.0 -Id 0.255 -It dbr -Il 60 -If 0 -Ii 10 -Iv 128 
d -t 27.139383333 -Hs 3 -Hd -1 -Ni 3 -Nx 300.00 -Ny 100.00 -Nz 500.00 -Ne 9999.662426 -Nl RTR -Nw TTL -Ma 0 -Md 2000000 -Ms ffff0008 -Mt 0 -Is 2.0 -Id 0.255 -It dbr -Il 60 -If 0 -Ii 10 -Iv 127 
r -t 27.194611808 -Hs 1 -Hd -1 -Ni 1 -Nx 100.00 -Ny 100.00 -Nz 500.00 -Ne 9999.650474 -Nl RTR -Nw --- -Ma 0 -Md 2000000 -Ms ffff0008 -Mt 0 -Is 2.0 -Id 0.255 -It dbr -Il 60 -If 0 -Ii 10 -Iv 128 
d -t 27.194611808 -Hs 1 -Hd -1 -Ni 1 -Nx 100.00 -Ny 100.00 -Nz 500.00 -Ne 9999.650474 -Nl RTR -Nw TTL -Ma 0 -Md 2000000 -Ms ffff0008 -Mt 0 -Is 2.0 -Id 0.255 -It dbr -Il 60 -If 0 -Ii 10 -Iv 127 
M 27.30000 4 (348.36, 337.75, 398.84), (354.47, 333.18), 2.45
M 27.60000 4 (348.95, 337.31, 398.84), (354.47, 333.18), 2.45
M 27.90000 4 (349.54, 336.87, 398.84), (354.47, 333.18), 2.45
N -t 28.000000 -n 0 -e 9999.676620
N -t 28.000000 -n 1 -e 9999.642420
N -t 28.000000 -n 2 -e 9999.642420
N -t 28.000000 -n 3 -e 9999.653820
N -t 28.000000 -n 4 -e 9999.709462
M 28.20000 4 (350.13, 336.43, 398.84), (354.47, 333.18), 2.45
M 28.50000 4 (350.71, 335.99, 398.84), (354.47, 333.18), 2.45
M 28.80000 4 (351.30, 335.55, 398.84), (354.47, 333.18), 2.45
r -t 29.000000000 -Hs 3 -Hd -2 -Ni 3 -Nx 300.00 -Ny 100.00 -Nz 500.00 -Ne 9999.653820 -Nl RTR -Nw --- -Ma 0 -Md 0 -Ms 0 -Mt 0 -Is 3.0 -Id 0.255 -It dbr -Il 400 -If 0 -Ii 11 -Iv 0 
N -t 29.000000 -n 0 -e 9999.666620
N -t 29.000000 -n 1 -e 9999.632420
N -t 29.000000 -n 2 -e 9999.632420
N -t 29.000000 -n 3 -e 9999.643820
N -t 29.000000 -n 4 -e 9999.699462
M 29.10000 4 (351.89, 335.11, 398.84), (354.47, 333.18), 2.45
r -t 29.139383333 -Hs 2 -Hd -1 -Ni 2 -Nx 300.00 -Ny 300.00 -Nz 500.00 -Ne 9999.630486 -Nl RTR -Nw --- -Ma 0 -Md 3000000 -Ms ffff0008 -Mt 0 -Is 3.0 -Id 0.255 -It dbr -Il 60 -If 0 -Ii 11 -Iv 128 
d -t 29.139383333 -Hs 2 -Hd -1 -Ni 2 -Nx 300.00 -Ny 300.00 -Nz 500.00 -Ne 9999.630486 -Nl RTR -Nw TTL -Ma 0 -Md 3000000 -Ms ffff0008 -Mt 0 -Is 3.0 -Id 0.255 -It dbr -Il 60 -If 0 -Ii 11 -Iv 127 
r -t 29.139383333 -Hs 1 -Hd -1 -Ni 1 -Nx 100.00 -Ny 100.00 -Nz 500.00 -Ne 9999.630486 -Nl RTR -Nw --- -Ma 0 -Md 3000000 -Ms ffff0008 -Mt 0 -Is 3.0 -Id 0.255 -It dbr -Il 60 -If 0 -Ii 11 -Iv 128 
d -t 29.139383333 -Hs 1 -Hd -1 -Ni 1 -Nx 100.00 -Ny 100.00 -Nz 500.00 -Ne 9999.630486 -Nl RTR -Nw TTL -Ma 0 -Md 3000000 -Ms ffff0008 -Mt 0 -Is 3.0 -Id 0.255 -It dbr -Il 60 -If 0 -Ii 11 -Iv 127 
r -t 29.180217140 -Hs 4 -Hd -1 -Ni 4 -Nx 352.05 -Ny 334.99 -Nz 398.84 -Ne 9999.697120 -Nl RTR -Nw --- -Ma 0 -Md 3000000 -Ms ffff0008 -Mt 0 -Is 3.0 -Id 0.255 -It dbr -Il 60 -If 0 -Ii 11 -Iv 128 
r -t 29.194611808 -Hs 0 -Hd -1 -Ni 0 -Nx 100.00 -Ny 300.00 -Nz 500.00 -Ne 9999.664134 -Nl RTR -Nw --- -Ma 0 -Md 3000000 -Ms ffff0008 -Mt 0 -Is 3.0 -Id 0.255 -It dbr -Il 60 -If 0 -Ii 11 -Iv 128 
d -t 29.194611808 -Hs 0 -Hd -1 -Ni 0 -Nx 100.00 -Ny 300.00 -Nz 500.00 -Ne 9999.664134 -Nl RTR -Nw TTL -Ma 0 -Md 3000000 -Ms ffff0008 -Mt 0 -Is 3.0 -Id 0.255 -It dbr -Il 60 -If 0 -Ii 11 -Iv 128 
M 29.40000 4 (352.48, 334.67, 398.84), (354.47, 333.18), 2.45
M 29.70000 4 (353.06, 334.23, 398.84), (354.47, 333.18), 2.45
N -t 30.000000 -n 0 -e 9999.656080
N -t 30.000000 -n 1 -e 9999.621880
N -t 30.000000 -n 2 -e 9999.621880
N -t 30.000000 -n 3 -e 9999.621880
N -t 30.000000 -n 4 -e 9999.688922
M 30.00000 4 (353.65, 333.79, 398.84), (354.47, 333.18), 2.45
M 30.30000 4 (354.24, 333.35, 398.84), (354.47, 333.18), 2.45
M 30.60000 4 (354.47, 333.18, 398.84), (20.08, 329.91), 1.15
M 30.90000 4 (354.13, 333.17, 398.84), (20.08, 329.91), 1.15
N -t 31.000000 -n 0 -e 9999.646080
N -t 31.000000 -n 1 -e 9999.611880
N -t 31.000000 -n 2 -e 9999.611880
N -t 31.000000 -n 3 -e 9999.611880
N -t 31.000000 -n 4 -e 9999.678922
M 31.20000 4 (353.79, 333.17, 398.84), (20.08, 329.91), 1.15
M 31.50000 4 (353.44, 333.16, 398.84), (20.08, 329.91), 1.15