n -t * -s 0  -x 500 -y 0 -Z 0 -z 10  -v circle -c green
n -t * -s 1  -x 440 -y 0 -Z 0 -z 10  -v circle -c green
n -t * -s 2  -x 380 -y 0 -Z 0 -z 10  -v circle -c green
n -t * -s 3  -x 320 -y 0 -Z 0 -z 10  -v circle -c green
n -t * -s 4  -x 260 -y 0 -Z 0 -z 10  -v circle -c green
n -t * -s 5  -x 200 -y 0 -Z 0 -z 10  -v circle -c green
V -t * -v 1.0a5 -a 0
W -t * -x 1000 -y 10
A -t * -n 1 -p 0 -o 0xffffffff -c 31 -a 1
A -t * -h 1 -m 2147483647 -s 0
+ -t 1.330025000 -s 5 -d -1 -p vectorbasedforward -e 400 -c 2 -a 0 -i 0 -k MAC 
- -t 1.330025000 -s 5 -d -1 -p vectorbasedforward -e 400 -c 2 -a 0 -i 0 -k MAC
h -t 1.330025000 -s 5 -d -1 -p vectorbasedforward -e 400 -c 2 -a 0 -i 0 -k MAC
r -t 1.410025000 -s 4 -d -1 -p vectorbasedforward -e 400 -c 2 -a 0 -i 0 -k MAC
+ -t 2.095863865 -s 4 -d -1 -p vectorbasedforward -e 400 -c 2 -a 0 -i 0 -k MAC 
- -t 2.095863865 -s 4 -d -1 -p vectorbasedforward -e 400 -c 2 -a 0 -i 0 -k MAC
h -t 2.095863865 -s 4 -d -1 -p vectorbasedforward -e 400 -c 2 -a 0 -i 0 -k MAC
r -t 2.175863865 -s 5 -d -1 -p vectorbasedforward -e 400 -c 2 -a 0 -i 0 -k MAC
r -t 2.175863865 -s 3 -d -1 -p vectorbasedforward -e 400 -c 2 -a 0 -i 0 -k MAC
+ -t 2.861702731 -s 3 -d -1 -p vectorbasedforward -e 400 -c 2 -a 0 -i 0 -k MAC 
- -t 2.861702731 -s 3 -d -1 -p vectorbasedforward -e 400 -c 2 -a 0 -i 0 -k MAC
h -t 2.861702731 -s 3 -d -1 -p vectorbasedforward -e 400 -c 2 -a 0 -i 0 -k MAC
r -t 2.941702731 -s 4 -d -1 -p vectorbasedforward -e 400 -c 2 -a 0 -i 0 -k MAC
r -t 2.941702731 -s 2 -d -1 -p vectorbasedforward -e 400 -c 2 -a 0 -i 0 -k MAC
+ -t 3.627541596 -s 2 -d -1 -p vectorbasedforward -e 400 -c 2 -a 0 -i 0 -k MAC 
- -t 3.627541596 -s 2 -d -1 -p vectorbasedforward -e 400 -c 2 -a 0 -i 0 -k MAC
h -t 3.627541596 -s 2 -d -1 -p vectorbasedforward -e 400 -c 2 -a 0 -i 0 -k MAC
r -t 3.707541596 -s 3 -d -1 -p vectorbasedforward -e 400 -c 2 -a 0 -i 0 -k MAC
r -t 3.707541596 -s 1 -d -1 -p vectorbasedforward -e 400 -c 2 -a 0 -i 0 -k MAC
+ -t 4.393380461 -s 1 -d -1 -p vectorbasedforward -e 400 -c 2 -a 0 -i 0 -k MAC 
- -t 4.393380461 -s 1 -d -1 -p vectorbasedforward -e 400 -c 2 -a 0 -i 0 -k MAC
h -t 4.393380461 -s 1 -d -1 -p vectorbasedforward -e 400 -c 2 -a 0 -i 0 -k MAC
r -t 4.473380461 -s 2 -d -1 -p vectorbasedforward -e 400 -c 2 -a 0 -i 0 -k MAC
r -t 4.473380461 -s 0 -d -1 -p vectorbasedforward -e 400 -c 2 -a 0 -i 0 -k MAC
+ -t 11.330025000 -s 5 -d -1 -p vectorbasedforward -e 400 -c 2 -a 0 -i 1 -k MAC 
- -t 11.330025000 -s 5 -d -1 -p vectorbasedforward -e 400 -c 2 -a 0 -i 1 -k MAC
h -t 11.330025000 -s 5 -d -1 -p vectorbasedforward -e 400 -c 2 -a 0 -i 1 -k MAC
r -t 11.410025000 -s 4 -d -1 -p vectorbasedforward -e 400 -c 2 -a 0 -i 1 -k MAC
+ -t 12.095863865 -s 4 -d -1 -p vectorbasedforward -e 400 -c 2 -a 0 -i 1 -k MAC 
- -t 12.095863865 -s 4 -d -1 -p vectorbasedforward -e 400 -c 2 -a 0 -i 1 -k MAC
h -t 12.095863865 -s 4 -d -1 -p vectorbasedforward -e 400 -c 2 -a 0 -i 1 -k MAC
r -t 12.175863865 -s 5 -d -1 -p vectorbasedforward -e 400 -c 2 -a 0 -i 1 -k MAC
r -t 12.175863865 -s 3 -d -1 -p vectorbasedforward -e 400 -c 2 -a 0 -i 1 -k MAC
+ -t 12.861702731 -s 3 -d -1 -p vectorbasedforward -e 400 -c 2 -a 0 -i 1 -k MAC 
- -t 12.861702731 -s 3 -d -1 -p vectorbasedforward -e 400 -c 2 -a 0 -i 1 -k MAC
h -t 12.861702731 -s 3 -d -1 -p vectorbasedforward -e 400 -c 2 -a 0 -i 1 -k MAC
r -t 12.941702731 -s 4 -d -1 -p vectorbasedforward -e 400 -c 2 -a 0 -i 1 -k MAC
r -t 12.941702731 -s 2 -d -1 -p vectorbasedforward -e 400 -c 2 -a 0 -i 1 -k MAC
+ -t 13.627541596 -s 2 -d -1 -p vectorbasedforward -e 400 -c 2 -a 0 -i 1 -k MAC 
- -t 13.627541596 -s 2 -d -1 -p vectorbasedforward -e 400 -c 2 -a 0 -i 1 -k MAC
h -t 13.627541596 -s 2 -d -1 -p vectorbasedforward -e 400 -c 2 -a 0 -i 1 -k MAC
r -t 13.707541596 -s 3 -d -1 -p vectorbasedforward -e 400 -c 2 -a 0 -i 1 -k MAC
r -t 13.707541596 -s 1 -d -1 -p vectorbasedforward -e 400 -c 2 -a 0 -i 1 -k MAC
+ -t 14.393380461 -s 1 -d -1 -p vectorbasedforward -e 400 -c 2 -a 0 -i 1 -k MAC 
- -t 14.393380461 -s 1 -d -1 -p vectorbasedforward -e 400 -c 2 -a 0 -i 1 -k MAC
h -t 14.393380461 -s 1 -d -1 -p vectorbasedforward -e 400 -c 2 -a 0 -i 1 -k MAC
r -t 14.473380461 -s 2 -d -1 -p vectorbasedforward -e 400 -c 2 -a 0 -i 1 -k MAC
r -t 14.473380461 -s 0 -d -1 -p vectorbasedforward -e 400 -c 2 -a 0 -i 1 -k MAC
+ -t 21.330025000 -s 5 -d -1 -p vectorbasedforward -e 400 -c 2 -a 0 -i 2 -k MAC 
- -t 21.330025000 -s 5 -d -1 -p vectorbasedforward -e 400 -c 2 -a 0 -i 2 -k MAC
h -t 21.330025000 -s 5 -d -1 -p vectorbasedforward -e 400 -c 2 -a 0 -i 2 -k MAC
r -t 21.410025000 -s 4 -d -1 -p vectorbasedforward -e 400 -c 2 -a 0 -i 2 -k MAC
+ -t 22.095863865 -s 4 -d -1 -p vectorbasedforward -e 400 -c 2 -a 0 -i 2 -k MAC 
- -t 22.095863865 -s 4 -d -1 -p vectorbasedforward -e 400 -c 2 -a 0 -i 2 -k MAC
h -t 22.095863865 -s 4 -d -1 -p vectorbasedforward -e 400 -c 2 -a 0 -i 2 -k MAC
r -t 22.175863865 -s 5 -d -1 -p vectorbasedforward -e 400 -c 2 -a 0 -i 2 -k MAC
r -t 22.175863865 -s 3 -d -1 -p vectorbasedforward -e 400 -c 2 -a 0 -i 2 -k MAC
+ -t 22.861702731 -s 3 -d -1 -p vectorbasedforward -e 400 -c 2 -a 0 -i 2 -k MAC 
- -t 22.861702731 -s 3 -d -1 -p vectorbasedforward -e 400 -c 2 -a 0 -i 2 -k MAC
h -t 22.861702731 -s 3 -d -1 -p vectorbasedforward -e 400 -c 2 -a 0 -i 2 -k MAC
r -t 22.941702731 -s 4 -d -1 -p vectorbasedforward -e 400 -c 2 -a 0 -i 2 -k MAC
r -t 22.941702731 -s 2 -d -1 -p vectorbasedforward -e 400 -c 2 -a 0 -i 2 -k MAC
+ -t 23.627541596 -s 2 -d -1 -p vectorbasedforward -e 400 -c 2 -a 0 -i 2 -k MAC 
- -t 23.627541596 -s 2 -d -1 -p vectorbasedforward -e 400 -c 2 -a 0 -i 2 -k MAC
h -t 23.627541596 -s 2 -d -1 -p vectorbasedforward -e 400 -c 2 -a 0 -i 2 -k MAC
r -t 23.707541596 -s 3 -d -1 -p vectorbasedforward -e 400 -c 2 -a 0 -i 2 -k MAC
r -t 23.707541596 -s 1 -d -1 -p vectorbasedforward -e 400 -c 2 -a 0 -i 2 -k MAC
+ -t 24.393380461 -s 1 -d -1 -p vectorbasedforward -e 400 -c 2 -a 0 -i 2 -k MAC 
- -t 24.393380461 -s 1 -d -1 -p vectorbasedforward -e 400 -c 2 -a 0 -i 2 -k MAC
h -t 24.393380461 -s 1 -d -1 -p vectorbasedforward -e 400 -c 2 -a 0 -i 2 -k MAC
r -t 24.473380461 -s 2 -d -1 -p vectorbasedforward -e 400 -c 2 -a 0 -i 2 -k MAC
r -t 24.473380461 -s 0 -d -1 -p vectorbasedforward -e 400 -c 2 -a 0 -i 2 -k MAC
+ -t 31.330025000 -s 5 -d -1 -p vectorbasedforward -e 400 -c 2 -a 0 -i 3 -k MAC 
- -t 31.330025000 -s 5 -d -1 -p vectorbasedforward -e 400 -c 2 -a 0 -i 3 -k MAC
h -t 31.330025000 -s 5 -d -1 -p vectorbasedforward -e 400 -c 2 -a 0 -i 3 -k MAC
r -t 31.410025000 -s 4 -d -1 -p vectorbasedforward -e 400 -c 2 -a 0 -i 3 -k MAC
+ -t 32.095863865 -s 4 -d -1 -p vectorbasedforward -e 400 -c 2 -a 0 -i 3 -k MAC 
- -t 32.095863865 -s 4 -d -1 -p vectorbasedforward -e 400 -c 2 -a 0 -i 3 -k MAC
h -t 32.095863865 -s 4 -d -1 -p vectorbasedforward -e 400 -c 2 -a 0 -i 3 -k MAC
r -t 32.175863865 -s 5 -d -1 -p vectorbasedforward -e 400 -c 2 -a 0 -i 3 -k MAC
r -t 32.175863865 -s 3 -d -1 -p vectorbasedforward -e 400 -c 2 -a 0 -i 3 -k MAC
+ -t 32.861702731 -s 3 -d -1 -p vectorbasedforward -e 400 -c 2 -a 0 -i 3 -k MAC 
- -t 32.861702731 -s 3 -d -1 -p vectorbasedforward -e 400 -c 2 -a 0 -i 3 -k MAC
h -t 32.861702731 -s 3 -d -1 -p vectorbasedforward -e 400 -c 2 -a 0 -i 3 -k MAC
r -t 32.941702731 -s 4 -d -1 -p vectorbasedforward -e 400 -c 2 -a 0 -i 3 -k MAC
r -t 32.941702731 -s 2 -d -1 -p vectorbasedforward -e 400 -c 2 -a 0 -i 3 -k MAC
+ -t 33.627541596 -s 2 -d -1 -p vectorbasedforward -e 400 -c 2 -a 0 -i 3 -k MAC 
- -t 33.627541596 -s 2 -d -1 -p vectorbasedforward -e 400 -c 2 -a 0 -i 3 -k MAC
h -t 33.627541596 -s 2 -d -1 -p vectorbasedforward -e 400 -c 2 -a 0 -i 3 -k MAC
r -t 33.707541596 -s 3 -d -1 -p vectorbasedforward -e 400 -c 2 -a 0 -i 3 -k MAC
r -t 33.707541596 -s 1 -d -1 -p vectorbasedforward -e 400 -c 2 -a 0 -i 3 -k MAC
+ -t 34.393380461 -s 1 -d -1 -p vectorbasedforward -e 400 -c 2 -a 0 -i 3 -k MAC 
- -t 34.393380461 -s 1 -d -1 -p vectorbasedforward -e 400 -c 2 -a 0 -i 3 -k MAC
h -t 34.393380461 -s 1 -d -1 -p vectorbasedforward -e 400 -c 2 -a 0 -i 3 -k MAC
r -t 34.473380461 -s 2 -d -1 -p vectorbasedforward -e 400 -c 2 -a 0 -i 3 -k MAC
r -t 34.473380461 -s 0 -d -1 -p vectorbasedforward -e 400 -c 2 -a 0 -i 3 -k MAC
+ -t 41.330025000 -s 5 -d -1 -p vectorbasedforward -e 400 -c 2 -a 0 -i 4 -k MAC 
- -t 41.330025000 -s 5 -d -1 -p vectorbasedforward -e 400 -c 2 -a 0 -i 4 -k MAC
h -t 41.330025000 -s 5 -d -1 -p vectorbasedforward -e 400 -c 2 -a 0 -i 4 -k MAC
r -t 41.410025000 -s 4 -d -1 -p vectorbasedforward -e 400 -c 2 -a 0 -i 4 -k MAC
+ -t 42.095863865 -s 4 -d -1 -p vectorbasedforward -e 400 -c 2 -a 0 -i 4 -k MAC 
- -t 42.095863865 -s 4 -d -1 -p vectorbasedforward -e 400 -c 2 -a 0 -i 4 -k MAC
h -t 42.095863865 -s 4 -d -1 -p vectorbasedforward -e 400 -c 2 -a 0 -i 4 -k MAC
r -t 42.175863865 -s 5 -d -1 -p vectorbasedforward -e 400 -c 2 -a 0 -i 4 -k MAC
r -t 42.175863865 -s 3 -d -1 -p vectorbasedforward -e 400 -c 2 -a 0 -i 4 -k MAC
+ -t 42.861702731 -s 3 -d -1 -p vectorbasedforward -e 400 -c 2 -a 0 -i 4 -k MAC 
- -t 42.861702731 -s 3 -d -1 -p vectorbasedforward -e 400 -c 2 -a 0 -i 4 -k MAC
h -t 42.861702731 -s 3 -d -1 -p vectorbasedforward -e 400 -c 2 -a 0 -i 4 -k MAC
r -t 42.941702731 -s 4 -d -1 -p vectorbasedforward -e 400 -c 2 -a 0 -i 4 -k MAC
r -t 42.941702731 -s 2 -d -1 -p vectorbasedforward -e 400 -c 2 -a 0 -i 4 -k MAC
+ -t 43.627541596 -s 2 -d -1 -p vectorbasedforward -e 400 -c 2 -a 0 -i 4 -k MAC 
- -t 43.627541596 -s 2 -d -1 -p vectorbasedforward -e 400 -c 2 -a 0 -i 4 -k MAC
h -t 43.627541596 -s 2 -d -1 -p vectorbasedforward -e 400 -c 2 -a 0 -i 4 -k MAC
r -t 43.707541596 -s 3 -d -1 -p vectorbasedforward -e 400 -c 2 -a 0 -i 4 -k MAC
r -t 43.707541596 -s 1 -d -1 -p vectorbasedforward -e 400 -c 2 -a 0 -i 4 -k MAC
+ -t 44.393380461 -s 1 -d -1 -p vectorbasedforward -e 400 -c 2 -a 0 -i 4 -k MAC 
- -t 44.393380461 -s 1 -d -1 -p vectorbasedforward -e 400 -c 2 -a 0 -i 4 -k MAC
h -t 44.393380461 -s 1 -d -1 -p vectorbasedforward -e 400 -c 2 -a 0 -i 4 -k MAC
r -t 44.473380461 -s 2 -d -1 -p vectorbasedforward -e 400 -c 2 -a 0 -i 4 -k MAC
r -t 44.473380461 -s 0 -d -1 -p vectorbasedforward -e 400 -c 2 -a 0 -i 4 -k MAC
+ -t 51.330025000 -s 5 -d -1 -p vectorbasedforward -e 400 -c 2 -a 0 -i 5 -k MAC 
- -t 51.330025000 -s 5 -d -1 -p vectorbasedforward -e 400 -c 2 -a 0 -i 5 -k MAC
h -t 51.330025000 -s 5 -d -1 -p vectorbasedforward -e 400 -c 2 -a 0 -i 5 -k MAC
r -t 51.410025000 -s 4 -d -1 -p vectorbasedforward -e 400 -c 2 -a 0 -i 5 -k MAC
+ -t 52.095863865 -s 4 -d -1 -p vectorbasedforward -e 400 -c 2 -a 0 -i 5 -k MAC 
- -t 52.095863865 -s 4 -d -1 -p vectorbasedforward -e 400 -c 2 -a 0 -i 5 -k MAC
h -t 52.095863865 -s 4 -d -1 -p vectorbasedforward -e 400 -c 2 -a 0 -i 5 -k MAC
r -t 52.175863865 -s 5 -d -1 -p vectorbasedforward -e 400 -c 2 -a 0 -i 5 -k MAC
r -t 52.175863865 -s 3 -d -1 -p vectorbasedforward -e 400 -c 2 -a 0 -i 5 -k MAC
+ -t 52.861702731 -s 3 -d -1 -p vectorbasedforward -e 400 -c 2 -a 0 -i 5 -k MAC 
- -t 52.861702731 -s 3 -d -1 -p vectorbasedforward -e 400 -c 2 -a 0 -i 5 -k MAC
h -t 52.861702731 -s 3 -d -1 -p vectorbasedforward -e 400 -c 2 -a 0 -i 5 -k MAC
r -t 52.941702731 -s 4 -d -1 -p vectorbasedforward -e 400 -c 2 -a 0 -i 5 -k MAC
r -t 52.941702731 -s 2 -d -1 -p vectorbasedforward -e 400 -c 2 -a 0 -i 5 -k MAC
+ -t 53.627541596 -s 2 -d -1 -p vectorbasedforward -e 400 -c 2 -a 0 -i 5 -k MAC 
- -t 53.627541596 -s 2 -d -1 -p vectorbasedforward -e 400 -c 2 -a 0 -i 5 -k MAC
h -t 53.627541596 -s 2 -d -1 -p vectorbasedforward -e 400 -c 2 -a 0 -i 5 -k MAC
r -t 53.707541596 -s 3 -d -1 -p vectorbasedforward -e 400 -c 2 -a 0 -i 5 -k MAC
r -t 53.707541596 -s 1 -d -1 -p vectorbasedforward -e 400 -c 2 -a 0 -i 5 -k MAC
+ -t 54.393380461 -s 1 -d -1 -p vectorbasedforward -e 400 -c 2 -a 0 -i 5 -k MAC 
- -t 54.393380461 -s 1 -d -1 -p vectorbasedforward -e 400 -c 2 -a 0 -i 5 -k MAC
h -t 54.393380461 -s 1 -d -1 -p vectorbasedforward -e 400 -c 2 -a 0 -i 5 -k MAC
r -t 54.473380461 -s 2 -d -1 -p vectorbasedforward -e 400 -c 2 -a 0 -i 5 -k MAC
r -t 54.473380461 -s 0 -d -1 -p vectorbasedforward -e 400 -c 2 -a 0 -i 5 -k MAC
+ -t 61.330025000 -s 5 -d -1 -p vectorbasedforward -e 400 -c 2 -a 0 -i 6 -k MAC 
- -t 61.330025000 -s 5 -d -1 -p vectorbasedforward -e 400 -c 2 -a 0 -i 6 -k MAC
h -t 61.330025000 -s 5 -d -1 -p vectorbasedforward -e 400 -c 2 -a 0 -i 6 -k MAC
r -t 61.410025000 -s 4 -d -1 -p vectorbasedforward -e 400 -c 2 -a 0 -i 6 -k MAC
+ -t 62.095863865 -s 4 -d -1 -p vectorbasedforward -e 400 -c 2 -a 0 -i 6 -k MAC 
- -t 62.095863865 -s 4 -d -1 -p vectorbasedforward -e 400 -c 2 -a 0 -i 6 -k MAC
h -t 62.095863865 -s 4 -d -1 -p vectorbasedforward -e 400 -c 2 -a 0 -i 6 -k MAC
r -t 62.175863865 -s 5 -d -1 -p vectorbasedforward -e 400 -c 2 -a 0 -i 6 -k MAC
r -t 62.175863865 -s 3 -d -1 -p vectorbasedforward -e 400 -c 2 -a 0 -i 6 -k MAC
+ -t 62.861702731 -s 3 -d -1 -p vectorbasedforward -e 400 -c 2 -a 0 -i 6 -k MAC 
- -t 62.861702731 -s 3 -d -1 -p vectorbasedforward -e 400 -c 2 -a 0 -i 6 -k MAC
h -t 62.861702731 -s 3 -d -1 -p vectorbasedforward -e 400 -c 2 -a 0 -i 6 -k MAC
r -t 62.941702731 -s 4 -d -1 -p vectorbasedforward -e 400 -c 2 -a 0 -i 6 -k MAC
r -t 62.941702731 -s 2 -d -1 -p vectorbasedforward -e 400 -c 2 -a 0 -i 6 -k MAC
+ -t 63.627541596 -s 2 -d -1 -p vectorbasedforward -e 400 -c 2 -a 0 -i 6 -k MAC 
- -t 63.627541596 -s 2 -d -1 -p vectorbasedforward -e 400 -c 2 -a 0 -i 6 -k MAC
h -t 63.627541596 -s 2 -d -1 -p vectorbasedforward -e 400 -c 2 -a 0 -i 6 -k MAC
r -t 63.707541596 -s 3 -d -1 -p vectorbasedforward -e 400 -c 2 -a 0 -i 6 -k MAC
r -t 63.707541596 -s 1 -d -1 -p vectorbasedforward -e 400 -c 2 -a 0 -i 6 -k MAC
+ -t 64.393380461 -s 1 -d -1 -p vectorbasedforward -e 400 -c 2 -a 0 -i 6 -k MAC 
- -t 64.393380461 -s 1 -d -1 -p vectorbasedforward -e 400 -c 2 -a 0 -i 6 -k MAC
h -t 64.393380461 -s 1 -d -1 -p vectorbasedforward -e 400 -c 2 -a 0 -i 6 -k MAC
r -t 64.473380461 -s 2 -d -1 -p vectorbasedforward -e 400 -c 2 -a 0 -i 6 -k MAC
r -t 64.473380461 -s 0 -d -1 -p vectorbasedforward -e 400 -c 2 -a 0 -i 6 -k MAC
+ -t 71.330025000 -s 5 -d -1 -p vectorbasedforward -e 400 -c 2 -a 0 -i 7 -k MAC 
- -t 71.330025000 -s 5 -d -1 -p vectorbasedforward -e 400 -c 2 -a 0 -i 7 -k MAC
h -t 71.330025000 -s 5 -d -1 -p vectorbasedforward -e 400 -c 2 -a 0 -i 7 -k MAC
r -t 71.410025000 -s 4 -d -1 -p vectorbasedforward -e 400 -c 2 -a 0 -i 7 -k MAC
+ -t 72.095863865 -s 4 -d -1 -p vectorbasedforward -e 400 -c 2 -a 0 -i 7 -k MAC 
- -t 72.095863865 -s 4 -d -1 -p vectorbasedforward -e 400 -c 2 -a 0 -i 7 -k MAC
h -t 72.095863865 -s 4 -d -1 -p vectorbasedforward -e 400 -c 2 -a 0 -i 7 -k MAC
r -t 72.175863865 -s 5 -d -1 -p vectorbasedforward -e 400 -c 2 -a 0 -i 7 -k MAC
r -t 72.175863865 -s 3 -d -1 -p vectorbasedforward -e 400 -c 2 -a 0 -i 7 -k MAC
+ -t 72.861702731 -s 3 -d -1 -p vectorbasedforward -e 400 -c 2 -a 0 -i 7 -k MAC 
- -t 72.861702731 -s 3 -d -1 -p vectorbasedforward -e 400 -c 2 -a 0 -i 7 -k MAC
h -t 72.861702731 -s 3 -d -1 -p vectorbasedforward -e 400 -c 2 -a 0 -i 7 -k MAC
r -t 72.941702731 -s 4 -d -1 -p vectorbasedforward -e 400 -c 2 -a 0 -i 7 -k MAC
r -t 72.941702731 -s 2 -d -1 -p vectorbasedforward -e 400 -c 2 -a 0 -i 7 -k MAC
+ -t 73.627541596 -s 2 -d -1 -p vectorbasedforward -e 400 -c 2 -a 0 -i 7 -k MAC 
- -t 73.627541596 -s 2 -d -1 -p vectorbasedforward -e 400 -c 2 -a 0 -i 7 -k MAC
h -t 73.627541596 -s 2 -d -1 -p vectorbasedforward -e 400 -c 2 -a 0 -i 7 -k MAC
r -t 73.707541596 -s 3 -d -1 -p vectorbasedforward -e 400 -c 2 -a 0 -i 7 -k MAC
r -t 73.707541596 -s 1 -d -1 -p vectorbasedforward -e 400 -c 2 -a 0 -i 7 -k MAC
+ -t 74.393380461 -s 1 -d -1 -p vectorbasedforward -e 400 -c 2 -a 0 -i 7 -k MAC 
- -t 74.393380461 -s 1 -d -1 -p vectorbasedforward -e 400 -c 2 -a 0 -i 7 -k MAC
h -t 74.393380461 -s 1 -d -1 -p vectorbasedforward -e 400 -c 2 -a 0 -i 7 -k MAC
r -t 74.473380461 -s 2 -d -1 -p vectorbasedforward -e 400 -c 2 -a 0 -i 7 -k MAC
r -t 74.473380461 -s 0 -d -1 -p vectorbasedforward -e 400 -c 2 -a 0 -i 7 -k MAC
+ -t 81.330025000 -s 5 -d -1 -p vectorbasedforward -e 400 -c 2 -a 0 -i 8 -k MAC 
- -t 81.330025000 -s 5 -d -1 -p vectorbasedforward -e 400 -c 2 -a 0 -i 8 -k MAC
h -t 81.330025000 -s 5 -d -1 -p vectorbasedforward -e 400 -c 2 -a 0 -i 8 -k MAC
r -t 81.410025000 -s 4 -d -1 -p vectorbasedforward -e 400 -c 2 -a 0 -i 8 -k MAC
+ -t 82.095863865 -s 4 -d -1 -p vectorbasedforward -e 400 -c 2 -a 0 -i 8 -k MAC 
- -t 82.095863865 -s 4 -d -1 -p vectorbasedforward -e 400 -c 2 -a 0 -i 8 -k MAC
h -t 82.095863865 -s 4 -d -1 -p vectorbasedforward -e 400 -c 2 -a 0 -i 8 -k MAC
r -t 82.175863865 -s 5 -d -1 -p vectorbasedforward -e 400 -c 2 -a 0 -i 8 -k MAC
r -t 82.175863865 -s 3 -d -1 -p vectorbasedforward -e 400 -c 2 -a 0 -i 8 -k MAC
+ -t 82.861702731 -s 3 -d -1 -p vectorbasedforward -e 400 -c 2 -a 0 -i 8 -k MAC 
- -t 82.861702731 -s 3 -d -1 -p vectorbasedforward -e 400 -c 2 -a 0 -i 8 -k MAC
h -t 82.861702731 -s 3 -d -1 -p vectorbasedforward -e 400 -c 2 -a 0 -i 8 -k MAC
r -t 82.941702731 -s 4 -d -1 -p vectorbasedforward -e 400 -c 2 -a 0 -i 8 -k MAC
r -t 82.941702731 -s 2 -d -1 -p vectorbasedforward -e 400 -c 2 -a 0 -i 8 -k MAC
+ -t 83.627541596 -s 2 -d -1 -p vectorbasedforward -e 400 -c 2 -a 0 -i 8 -k MAC 
- -t 83.627541596 -s 2 -d -1 -p vectorbasedforward -e 400 -c 2 -a 0 -i 8 -k MAC
h -t 83.627541596 -s 2 -d -1 -p vectorbasedforward -e 400 -c 2 -a 0 -i 8 -k MAC
r -t 83.707541596 -s 3 -d -1 -p vectorbasedforward -e 400 -c 2 -a 0 -i 8 -k MAC
r -t 83.707541596 -s 1 -d -1 -p vectorbasedforward -e 400 -c 2 -a 0 -i 8 -k MAC
+ -t 84.393380461 -s 1 -d -1 -p vectorbasedforward -e 400 -c 2 -a 0 -i 8 -k MAC 
- -t 84.393380461 -s 1 -d -1 -p vectorbasedforward -e 400 -c 2 -a 0 -i 8 -k MAC
h -t 84.393380461 -s 1 -d -1 -p vectorbasedforward -e 400 -c 2 -a 0 -i 8 -k MAC
r -t 84.473380461 -s 2 -d -1 -p vectorbasedforward -e 400 -c 2 -a 0 -i 8 -k MAC
r -t 84.473380461 -s 0 -d -1 -p vectorbasedforward -e 400 -c 2 -a 0 -i 8 -k MAC
+ -t 91.330025000 -s 5 -d -1 -p vectorbasedforward -e 400 -c 2 -a 0 -i 9 -k MAC 
- -t 91.330025000 -s 5 -d -1 -p vectorbasedforward -e 400 -c 2 -a 0 -i 9 -k MAC
h -t 91.330025000 -s 5 -d -1 -p vectorbasedforward -e 400 -c 2 -a 0 -i 9 -k MAC
r -t 91.410025000 -s 4 -d -1 -p vectorbasedforward -e 400 -c 2 -a 0 -i 9 -k MAC
+ -t 92.095863865 -s 4 -d -1 -p vectorbasedforward -e 400 -c 2 -a 0 -i 9 -k MAC 
- -t 92.095863865 -s 4 -d -1 -p vectorbasedforward -e 400 -c 2 -a 0 -i 9 -k MAC
h -t 92.095863865 -s 4 -d -1 -p vectorbasedforward -e 400 -c 2 -a 0 -i 9 -k MAC
r -t 92.175863865 -s 5 -d -1 -p vectorbasedforward -e 400 -c 2 -a 0 -i 9 -k MAC
r -t 92.175863865 -s 3 -d -1 -p vectorbasedforward -e 400 -c 2 -a 0 -i 9 -k MAC
+ -t 92.861702731 -s 3 -d -1 -p vectorbasedforward -e 400 -c 2 -a 0 -i 9 -k MAC 
- -t 92.861702731 -s 3 -d -1 -p vectorbasedforward -e 400 -c 2 -a 0 -i 9 -k MAC
h -t 92.861702731 -s 3 -d -1 -p vectorbasedforward -e 400 -c 2 -a 0 -i 9 -k MAC
r -t 92.941702731 -s 4 -d -1 -p vectorbasedforward -e 400 -c 2 -a 0 -i 9 -k MAC
r -t 92.941702731 -s 2 -d -1 -p vectorbasedforward -e 400 -c 2 -a 0 -i 9 -k MAC
+ -t 93.627541596 -s 2 -d -1 -p vectorbasedforward -e 400 -c 2 -a 0 -i 9 -k MAC 
- -t 93.627541596 -s 2 -d -1 -p vectorbasedforward -e 400 -c 2 -a 0 -i 9 -k MAC
h -t 93.627541596 -s 2 -d -1 -p vectorbasedforward -e 400 -c 2 -a 0 -i 9 -k MAC
r -t 93.707541596 -s 3 -d -1 -p vectorbasedforward -e 400 -c 2 -a 0 -i 9 -k MAC
r -t 93.707541596 -s 1 -d -1 -p vectorbasedforward -e 400 -c 2 -a 0 -i 9 -k MAC
+ -t 94.393380461 -s 1 -d -1 -p vectorbasedforward -e 400 -c 2 -a 0 -i 9 -k MAC 
- -t 94.393380461 -s 1 -d -1 -p vectorbasedforward -e 400 -c 2 -a 0 -i 9 -k MAC
h -t 94.393380461 -s 1 -d -1 -p vectorbasedforward -e 400 -c 2 -a 0 -i 9 -k MAC
r -t 94.473380461 -s 2 -d -1 -p vectorbasedforward -e 400 -c 2 -a 0 -i 9 -k MAC
r -t 94.473380461 -s 0 -d -1 -p vectorbasedforward -e 400 -c 2 -a 0 -i 9 -k MAC
+ -t 101.330025000 -s 5 -d -1 -p vectorbasedforward -e 400 -c 2 -a 0 -i 10 -k MAC 
- -t 101.330025000 -s 5 -d -1 -p vectorbasedforward -e 400 -c 2 -a 0 -i 10 -k MAC
h -t 101.330025000 -s 5 -d -1 -p vectorbasedforward -e 400 -c 2 -a 0 -i 10 -k MAC
r -t 101.410025000 -s 4 -d -1 -p vectorbasedforward -e 400 -c 2 -a 0 -i 10 -k MAC
+ -t 102.095863865 -s 4 -d -1 -p vectorbasedforward -e 400 -c 2 -a 0 -i 10 -k MAC 
- -t 102.095863865 -s 4 -d -1 -p vectorbasedforward -e 400 -c 2 -a 0 -i 10 -k MAC
h -t 102.095863865 -s 4 -d -1 -p vectorbasedforward -e 400 -c 2 -a 0 -i 10 -k MAC
r -t 102.175863865 -s 5 -d -1 -p vectorbasedforward -e 400 -c 2 -a 0 -i 10 -k MAC
r -t 102.175863865 -s 3 -d -1 -p vectorbasedforward -e 400 -c 2 -a 0 -i 10 -k MAC
+ -t 102.861702731 -s 3 -d -1 -p vectorbasedforward -e 400 -c 2 -a 0 -i 10 -k MAC 
- -t 102.861702731 -s 3 -d -1 -p vectorbasedforward -e 400 -c 2 -a 0 -i 10 -k MAC
h -t 102.861702731 -s 3 -d -1 -p vectorbasedforward -e 400 -c 2 -a 0 -i 10 -k MAC
r -t 102.941702731 -s 4 -d -1 -p vectorbasedforward -e 400 -c 2 -a 0 -i 10 -k MAC
r -t 102.941702731 -s 2 -d -1 -p vectorbasedforward -e 400 -c 2 -a 0 -i 10 -k MAC
+ -t 103.627541596 -s 2 -d -1 -p vectorbasedforward -e 400 -c 2 -a 0 -i 10 -k MAC 
- -t 103.627541596 -s 2 -d -1 -p vectorbasedforward -e 400 -c 2 -a 0 -i 10 -k MAC
h -t 103.627541596 -s 2 -d -1 -p vectorbasedforward -e 400 -c 2 -a 0 -i 10 -k MAC
r -t 103.707541596 -s 3 -d -1 -p vectorbasedforward -e 400 -c 2 -a 0 -i 10 -k MAC
r -t 103.707541596 -s 1 -d -1 -p vectorbasedforward -e 400 -c 2 -a 0 -i 10 -k MAC
+ -t 104.393380461 -s 1 -d -1 -p vectorbasedforward -e 400 -c 2 -a 0 -i 10 -k MAC 
- -t 104.393380461 -s 1 -d -1 -p vectorbasedforward -e 400 -c 2 -a 0 -i 10 -k MAC
h -t 104.393380461 -s 1 -d -1 -p vectorbasedforward -e 400 -c 2 -a 0 -i 10 -k MAC
r -t 104.473380461 -s 2 -d -1 -p vectorbasedforward -e 400 -c 2 -a 0 -i 10 -k MAC
r -t 104.473380461 -s 0 -d -1 -p vectorbasedforward -e 400 -c 2 -a 0 -i 10 -k MAC
+ -t 111.330025000 -s 5 -d -1 -p vectorbasedforward -e 400 -c 2 -a 0 -i 11 -k MAC 
- -t 111.330025000 -s 5 -d -1 -p vectorbasedforward -e 400 -c 2 -a 0 -i 11 -k MAC
h -t 111.330025000 -s 5 -d -1 -p vectorbasedforward -e 400 -c 2 -a 0 -i 11 -k MAC
r -t 111.410025000 -s 4 -d -1 -p vectorbasedforward -e 400 -c 2 -a 0 -i 11 -k MAC
+ -t 112.095863865 -s 4 -d -1 -p vectorbasedforward -e 400 -c 2 -a 0 -i 11 -k MAC 
- -t 112.095863865 -s 4 -d -1 -p vectorbasedforward -e 400 -c 2 -a 0 -i 11 -k MAC
h -t 112.095863865 -s 4 -d -1 -p vectorbasedforward -e 400 -c 2 -a 0 -i 11 -k MAC
r -t 112.175863865 -s 5 -d -1 -p vectorbasedforward -e 400 -c 2 -a 0 -i 11 -k MAC
r -t 112.175863865 -s 3 -d -1 -p vectorbasedforward -e 400 -c 2 -a 0 -i 11 -k MAC
+ -t 112.861702731 -s 3 -d -1 -p vectorbasedforward -e 400 -c 2 -a 0 -i 11 -k MAC 
- -t 112.861702731 -s 3 -d -1 -p vectorbasedforward -e 400 -c 2 -a 0 -i 11 -k MAC
h -t 112.861702731 -s 3 -d -1 -p vectorbasedforward -e 400 -c 2 -a 0 -i 11 -k MAC
r -t 112.941702731 -s 4 -d -1 -p vectorbasedforward -e 400 -c 2 -a 0 -i 11 -k MAC
r -t 112.941702731 -s 2 -d -1 -p vectorbasedforward -e 400 -c 2 -a 0 -i 11 -k MAC
+ -t 113.627541596 -s 2 -d -1 -p vectorbasedforward -e 400 -c 2 -a 0 -i 11 -k MAC 
- -t 113.627541596 -s 2 -d -1 -p vectorbasedforward -e 400 -c 2 -a 0 -i 11 -k MAC
h -t 113.627541596 -s 2 -d -1 -p vectorbasedforward -e 400 -c 2 -a 0 -i 11 -k MAC
r -t 113.707541596 -s 3 -d -1 -p vectorbasedforward -e 400 -c 2 -a 0 -i 11 -k MAC
r -t 113.707541596 -s 1 -d -1 -p vectorbasedforward -e 400 -c 2 -a 0 -i 11 -k MAC
+ -t 114.393380461 -s 1 -d -1 -p vectorbasedforward -e 400 -c 2 -a 0 -i 11 -k MAC 
- -t 114.393380461 -s 1 -d -1 -p vectorbasedforward -e 400 -c 2 -a 0 -i 11 -k MAC
h -t 114.393380461 -s 1 -d -1 -p vectorbasedforward -e 400 -c 2 -a 0 -i 11 -k MAC
r -t 114.473380461 -s 2 -d -1 -p vectorbasedforward -e 400 -c 2 -a 0 -i 11 -k MAC
r -t 114.473380461 -s 0 -d -1 -p vectorbasedforward -e 400 -c 2 -a 0 -i 11 -k MAC
+ -t 121.330025000 -s 5 -d -1 -p vectorbasedforward -e 400 -c 2 -a 0 -i 12 -k MAC 
- -t 121.330025000 -s 5 -d -1 -p vectorbasedforward -e 400 -c 2 -a 0 -i 12 -k MAC
h -t 121.330025000 -s 5 -d -1 -p vectorbasedforward -e 400 -c 2 -a 0 -i 12 -k MAC
r -t 121.410025000 -s 4 -d -1 -p vectorbasedforward -e 400 -c 2 -a 0 -i 12 -k MAC
+ -t 122.095863865 -s 4 -d -1 -p vectorbasedforward -e 400 -c 2 -a 0 -i 12 -k MAC 
- -t 122.095863865 -s 4 -d -1 -p vectorbasedforward -e 400 -c 2 -a 0 -i 12 -k MAC
h -t 122.095863865 -s 4 -d -1 -p vectorbasedforward -e 400 -c 2 -a 0 -i 12 -k MAC
r -t 122.175863865 -s 5 -d -1 -p vectorbasedforward -e 400 -c 2 -a 0 -i 12 -k MAC
r -t 122.175863865 -s 3 -d -1 -p vectorbasedforward -e 400 -c 2 -a 0 -i 12 -k MAC
+ -t 122.861702731 -s 3 -d -1 -p vectorbasedforward -e 400 -c 2 -a 0 -i 12 -k MAC 
- -t 122.861702731 -s 3 -d -1 -p vectorbasedforward -e 400 -c 2 -a 0 -i 12 -k MAC
h -t 122.861702731 -s 3 -d -1 -p vectorbasedforward -e 400 -c 2 -a 0 -i 12 -k MAC
r -t 122.941702731 -s 4 -d -1 -p vectorbasedforward -e 400 -c 2 -a 0 -i 12 -k MAC
r -t 122.941702731 -s 2 -d -1 -p vectorbasedforward -e 400 -c 2 -a 0 -i 12 -k MAC
+ -t 123.627541596 -s 2 -d -1 -p vectorbasedforward -e 400 -c 2 -a 0 -i 12 -k MAC 
- -t 123.627541596 -s 2 -d -1 -p vectorbasedforward -e 400 -c 2 -a 0 -i 12 -k MAC
h -t 123.627541596 -s 2 -d -1 -p vectorbasedforward -e 400 -c 2 -a 0 -i 12 -k MAC
r -t 123.707541596 -s 3 -d -1 -p vectorbasedforward -e 400 -c 2 -a 0 -i 12 -k MAC
r -t 123.707541596 -s 1 -d -1 -p vectorbasedforward -e 400 -c 2 -a 0 -i 12 -k MAC
+ -t 124.393380461 -s 1 -d -1 -p vectorbasedforward -e 400 -c 2 -a 0 -i 12 -k MAC 
- -t 124.393380461 -s 1 -d -1 -p vectorbasedforward -e 400 -c 2 -a 0 -i 12 -k MAC
h -t 124.393380461 -s 1 -d -1 -p vectorbasedforward -e 400 -c 2 -a 0 -i 12 -k MAC
r -t 124.473380461 -s 2 -d -1 -p vectorbasedforward -e 400 -c 2 -a 0 -i 12 -k MAC
r -t 124.473380461 -s 0 -d -1 -p vectorbasedforward -e 400 -c 2 -a 0 -i 12 -k MAC
+ -t 131.330025000 -s 5 -d -1 -p vectorbasedforward -e 400 -c 2 -a 0 -i 13 -k MAC 
- -t 131.330025000 -s 5 -d -1 -p vectorbasedforward -e 400 -c 2 -a 0 -i 13 -k MAC
h -t 131.330025000 -s 5 -d -1 -p vectorbasedforward -e 400 -c 2 -a 0 -i 13 -k MAC
r -t 131.410025000 -s 4 -d -1 -p vectorbasedforward -e 400 -c 2 -a 0 -i 13 -k MAC
+ -t 132.095863865 -s 4 -d -1 -p vectorbasedforward -e 400 -c 2 -a 0 -i 13 -k MAC 
- -t 132.095863865 -s 4 -d -1 -p vectorbasedforward -e 400 -c 2 -a 0 -i 13 -k MAC
h -t 132.095863865 -s 4 -d -1 -p vectorbasedforward -e 400 -c 2 -a 0 -i 13 -k MAC
r -t 132.175863865 -s 5 -d -1 -p vectorbasedforward -e 400 -c 2 -a 0 -i 13 -k MAC
r -t 132.175863865 -s 3 -d -1 -p vectorbasedforward -e 400 -c 2 -a 0 -i 13 -k MAC
+ -t 132.861702731 -s 3 -d -1 -p vectorbasedforward -e 400 -c 2 -a 0 -i 13 -k MAC 
- -t 132.861702731 -s 3 -d -1 -p vectorbasedforward -e 400 -c 2 -a 0 -i 13 -k MAC
h -t 132.861702731 -s 3 -d -1 -p vectorbasedforward -e 400 -c 2 -a 0 -i 13 -k MAC
r -t 132.941702731 -s 4 -d -1 -p vectorbasedforward -e 400 -c 2 -a 0 -i 13 -k MAC
r -t 132.941702731 -s 2 -d -1 -p vectorbasedforward -e 400 -c 2 -a 0 -i 13 -k MAC
+ -t 133.627541596 -s 2 -d -1 -p vectorbasedforward -e 400 -c 2 -a 0 -i 13 -k MAC 
- -t 133.627541596 -s 2 -d -1 -p vectorbasedforward -e 400 -c 2 -a 0 -i 13 -k MAC
h -t 133.627541596 -s 2 -d -1 -p vectorbasedforward -e 400 -c 2 -a 0 -i 13 -k MAC
r -t 133.707541596 -s 3 -d -1 -p vectorbasedforward -e 400 -c 2 -a 0 -i 13 -k MAC
r -t 133.707541596 -s 1 -d -1 -p vectorbasedforward -e 400 -c 2 -a 0 -i 13 -k MAC
+ -t 134.393380461 -s 1 -d -1 -p vectorbasedforward -e 400 -c 2 -a 0 -i 13 -k MAC 
- -t 134.393380461 -s 1 -d -1 -p vectorbasedforward -e 400 -c 2 -a 0 -i 13 -k MAC
h -t 134.393380461 -s 1 -d -1 -p vectorbasedforward -e 400 -c 2 -a 0 -i 13 -k MAC
r -t 134.473380461 -s 2 -d -1 -p vectorbasedforward -e 400 -c 2 -a 0 -i 13 -k MAC
r -t 134.473380461 -s 0 -d -1 -p vectorbasedforward -e 400 -c 2 -a 0 -i 13 -k MAC
+ -t 141.330025000 -s 5 -d -1 -p vectorbasedforward -e 400 -c 2 -a 0 -i 14 -k MAC 
- -t 141.330025000 -s 5 -d -1 -p vectorbasedforward -e 400 -c 2 -a 0 -i 14 -k MAC
h -t 141.330025000 -s 5 -d -1 -p vectorbasedforward -e 400 -c 2 -a 0 -i 14 -k MAC
r -t 141.410025000 -s 4 -d -1 -p vectorbasedforward -e 400 -c 2 -a 0 -i 14 -k MAC
+ -t 142.095863865 -s 4 -d -1 -p vectorbasedforward -e 400 -c 2 -a 0 -i 14 -k MAC 
- -t 142.095863865 -s 4 -d -1 -p vectorbasedforward -e 400 -c 2 -a 0 -i 14 -k MAC
h -t 142.095863865 -s 4 -d -1 -p vectorbasedforward -e 400 -c 2 -a 0 -i 14 -k MAC
r -t 142.175863865 -s 5 -d -1 -p vectorbasedforward -e 400 -c 2 -a 0 -i 14 -k MAC
r -t 142.175863865 -s 3 -d -1 -p vectorbasedforward -e 400 -c 2 -a 0 -i 14 -k MAC
+ -t 142.861702731 -s 3 -d -1 -p vectorbasedforward -e 400 -c 2 -a 0 -i 14 -k MAC 
- -t 142.861702731 -s 3 -d -1 -p vectorbasedforward -e 400 -c 2 -a 0 -i 14 -k MAC
h -t 142.861702731 -s 3 -d -1 -p vectorbasedforward -e 400 -c 2 -a 0 -i 14 -k MAC
r -t 142.941702731 -s 4 -d -1 -p vectorbasedforward -e 400 -c 2 -a 0 -i 14 -k MAC
r -t 142.941702731 -s 2 -d -1 -p vectorbasedforward -e 400 -c 2 -a 0 -i 14 -k MAC
+ -t 143.627541596 -s 2 -d -1 -p vectorbasedforward -e 400 -c 2 -a 0 -i 14 -k MAC 
- -t 143.627541596 -s 2 -d -1 -p vectorbasedforward -e 400 -c 2 -a 0 -i 14 -k MAC
h -t 143.627541596 -s 2 -d -1 -p vectorbasedforward -e 400 -c 2 -a 0 -i 14 -k MAC
r -t 143.707541596 -s 3 -d -1 -p vectorbasedforward -e 400 -c 2 -a 0 -i 14 -k MAC
r -t 143.707541596 -s 1 -d -1 -p vectorbasedforward -e 400 -c 2 -a 0 -i 14 -k MAC
+ -t 144.393380461 -s 1 -d -1 -p vectorbasedforward -e 400 -c 2 -a 0 -i 14 -k MAC 
- -t 144.393380461 -s 1 -d -1 -p vectorbasedforward -e 400 -c 2 -a 0 -i 14 -k MAC
h -t 144.393380461 -s 1 -d -1 -p vectorbasedforward -e 400 -c 2 -a 0 -i 14 -k MAC
r -t 144.473380461 -s 2 -d -1 -p vectorbasedforward -e 400 -c 2 -a 0 -i 14 -k MAC
r -t 144.473380461 -s 0 -d -1 -p vectorbasedforward -e 400 -c 2 -a 0 -i 14 -k MAC
+ -t 151.330025000 -s 5 -d -1 -p vectorbasedforward -e 400 -c 2 -a 0 -i 15 -k MAC 
- -t 151.330025000 -s 5 -d -1 -p vectorbasedforward -e 400 -c 2 -a 0 -i 15 -k MAC
h -t 151.330025000 -s 5 -d -1 -p vectorbasedforward -e 400 -c 2 -a 0 -i 15 -k MAC
r -t 151.410025000 -s 4 -d -1 -p vectorbasedforward -e 400 -c 2 -a 0 -i 15 -k MAC
+ -t 152.095863865 -s 4 -d -1 -p vectorbasedforward -e 400 -c 2 -a 0 -i 15 -k MAC 