N -t 1.000000 -n 0 -e 9999.992000
N -t 1.000000 -n 1 -e 9999.992000
N -t 1.000000 -n 2 -e 9999.992000
N -t 1.000000 -n 3 -e 9999.992000
N -t 1.000000 -n 4 -e 9999.992000
N -t 1.000000 -n 5 -e 9999.992000
s 1.330025000 _5_ MAC  --- 0 vectorbasedforward 400 [0 5000000 ffff0008 0] [energy 9999.992000 ei 0.008 es 0.000 et 0.000 er 0.000] ------- [5:0 5:255 0 0] 
r 1.410025000 _4_ MAC  --- 0 vectorbasedforward 400 [0 5000000 ffff0008 0] [energy 9999.959040 ei 0.011 es 0.000 et 0.000 er 0.030] ------- [5:0 5:255 0 0] 
N -t 2.000000 -n 0 -e 9999.984000
N -t 2.000000 -n 1 -e 9999.984000
N -t 2.000000 -n 2 -e 9999.984000
N -t 2.000000 -n 3 -e 9999.984000
N -t 2.000000 -n 4 -e 9999.954320
N -t 2.000000 -n 5 -e 9999.904320
s 2.095863865 _4_ MAC  --- 0 vectorbasedforward 400 [0 4000000 ffff0008 0] [energy 9999.954320 ei 0.016 es 0.000 et 0.000 er 0.030] ------- [5:0 5:255 0 0] 
r 2.175863865 _5_ MAC  --- 0 vectorbasedforward 400 [0 4000000 ffff0008 0] [energy 9999.873233 ei 0.017 es 0.000 et 0.080 er 0.030] ------- [5:0 5:255 0 0] 
r 2.175863865 _3_ MAC  --- 0 vectorbasedforward 400 [0 4000000 ffff0008 0] [energy 9999.952913 ei 0.017 es 0.000 et 0.000 er 0.030] ------- [5:0 5:255 0 0] 
s 2.861702731 _3_ MAC  --- 0 vectorbasedforward 400 [0 3000000 ffff0008 0] [energy 9999.952913 ei 0.017 es 0.000 et 0.000 er 0.030] ------- [5:0 5:255 0 0] 
r 2.941702731 _4_ MAC  --- 0 vectorbasedforward 400 [0 3000000 ffff0008 0] [energy 9999.837426 ei 0.023 es 0.000 et 0.080 er 0.060] ------- [5:0 5:255 0 0] 
r 2.941702731 _2_ MAC  --- 0 vectorbasedforward 400 [0 3000000 ffff0008 0] [energy 9999.946786 ei 0.023 es 0.000 et 0.000 er 0.030] ------- [5:0 5:255 0 0] 
N -t 3.000000 -n 0 -e 9999.976000
N -t 3.000000 -n 1 -e 9999.976000
N -t 3.000000 -n 2 -e 9999.946320
N -t 3.000000 -n 3 -e 9999.866640
N -t 3.000000 -n 4 -e 9999.836960
N -t 3.000000 -n 5 -e 9999.866640
s 3.627541596 _2_ MAC  --- 0 vectorbasedforward 400 [0 2000000 ffff0008 0] [energy 9999.946320 ei 0.024 es 0.000 et 0.000 er 0.030] ------- [5:0 5:255 0 0] 
r 3.707541596 _3_ MAC  --- 0 vectorbasedforward 400 [0 2000000 ffff0008 0] [energy 9999.831300 ei 0.029 es 0.000 et 0.080 er 0.060] ------- [5:0 5:255 0 0] 
r 3.707541596 _1_ MAC  --- 0 vectorbasedforward 400 [0 2000000 ffff0008 0] [energy 9999.940660 ei 0.029 es 0.000 et 0.000 er 0.030] ------- [5:0 5:255 0 0] 
N -t 4.000000 -n 0 -e 9999.968000
N -t 4.000000 -n 1 -e 9999.938320
N -t 4.000000 -n 2 -e 9999.858640
N -t 4.000000 -n 3 -e 9999.828960
N -t 4.000000 -n 4 -e 9999.828960
N -t 4.000000 -n 5 -e 9999.858640
s 4.393380461 _1_ MAC  --- 0 vectorbasedforward 400 [0 1000000 ffff0008 0] [energy 9999.938320 ei 0.032 es 0.000 et 0.000 er 0.030] ------- [5:0 5:255 0 0] 
r 4.473380461 _2_ MAC  --- 0 vectorbasedforward 400 [0 1000000 ffff0008 0] [energy 9999.825173 ei 0.035 es 0.000 et 0.080 er 0.060] ------- [5:0 5:255 0 0] 
r 4.473380461 _0_ MAC  --- 0 vectorbasedforward 400 [0 1000000 ffff0008 0] [energy 9999.934533 ei 0.035 es 0.000 et 0.000 er 0.030] ------- [5:0 5:255 0 0] 
N -t 5.000000 -n 0 -e 9999.930320
N -t 5.000000 -n 1 -e 9999.850640
N -t 5.000000 -n 2 -e 9999.820960
N -t 5.000000 -n 3 -e 9999.820960
N -t 5.000000 -n 4 -e 9999.820960
N -t 5.000000 -n 5 -e 9999.850640
N -t 6.000000 -n 0 -e 9999.922320
N -t 6.000000 -n 1 -e 9999.842640
N -t 6.000000 -n 2 -e 9999.812960
N -t 6.000000 -n 3 -e 9999.812960
N -t 6.000000 -n 4 -e 9999.812960
N -t 6.000000 -n 5 -e 9999.842640
N -t 7.000000 -n 0 -e 9999.914320
N -t 7.000000 -n 1 -e 9999.834640
N -t 7.000000 -n 2 -e 9999.804960
N -t 7.000000 -n 3 -e 9999.804960
N -t 7.000000 -n 4 -e 9999.804960
N -t 7.000000 -n 5 -e 9999.834640
N -t 8.000000 -n 0 -e 9999.906320
N -t 8.000000 -n 1 -e 9999.826640
N -t 8.000000 -n 2 -e 9999.796960
N -t 8.000000 -n 3 -e 9999.796960
N -t 8.000000 -n 4 -e 9999.796960
N -t 8.000000 -n 5 -e 9999.826640
N -t 9.000000 -n 0 -e 9999.898320
N -t 9.000000 -n 1 -e 9999.818640
N -t 9.000000 -n 2 -e 9999.788960
N -t 9.000000 -n 3 -e 9999.788960
N -t 9.000000 -n 4 -e 9999.788960
N -t 9.000000 -n 5 -e 9999.818640
N -t 10.000000 -n 0 -e 9999.890320
N -t 10.000000 -n 1 -e 9999.810640
N -t 10.000000 -n 2 -e 9999.780960
N -t 10.000000 -n 3 -e 9999.780960
N -t 10.000000 -n 4 -e 9999.780960
N -t 10.000000 -n 5 -e 9999.810640
N -t 11.000000 -n 0 -e 9999.882320
N -t 11.000000 -n 1 -e 9999.802640
N -t 11.000000 -n 2 -e 9999.772960
N -t 11.000000 -n 3 -e 9999.772960
N -t 11.000000 -n 4 -e 9999.772960
N -t 11.000000 -n 5 -e 9999.802640
s 11.330025000 _5_ MAC  --- 1 vectorbasedforward 400 [0 5000000 ffff0008 0] [energy 9999.802640 ei 0.087 es 0.000 et 0.080 er 0.030] ------- [5:0 5:255 0 0] 
r 11.410025000 _4_ MAC  --- 1 vectorbasedforward 400 [0 5000000 ffff0008 0] [energy 9999.740000 ei 0.090 es 0.000 et 0.080 er 0.090] ------- [5:0 5:255 0 0] 
N -t 12.000000 -n 0 -e 9999.874320
N -t 12.000000 -n 1 -e 9999.794640
N -t 12.000000 -n 2 -e 9999.764960
N -t 12.000000 -n 3 -e 9999.764960
N -t 12.000000 -n 4 -e 9999.735280
N -t 12.000000 -n 5 -e 9999.714960
s 12.095863865 _4_ MAC  --- 1 vectorbasedforward 400 [0 4000000 ffff0008 0] [energy 9999.735280 ei 0.095 es 0.000 et 0.080 er 0.090] ------- [5:0 5:255 0 0] 
r 12.175863865 _5_ MAC  --- 1 vectorbasedforward 400 [0 4000000 ffff0008 0] [energy 9999.683873 ei 0.096 es 0.000 et 0.160 er 0.060] ------- [5:0 5:255 0 0] 
r 12.175863865 _3_ MAC  --- 1 vectorbasedforward 400 [0 4000000 ffff0008 0] [energy 9999.733873 ei 0.096 es 0.000 et 0.080 er 0.090] ------- [5:0 5:255 0 0] 
s 12.861702731 _3_ MAC  --- 1 vectorbasedforward 400 [0 3000000 ffff0008 0] [energy 9999.733873 ei 0.096 es 0.000 et 0.080 er 0.090] ------- [5:0 5:255 0 0] 
r 12.941702731 _4_ MAC  --- 1 vectorbasedforward 400 [0 3000000 ffff0008 0] [energy 9999.618386 ei 0.102 es 0.000 et 0.160 er 0.120] ------- [5:0 5:255 0 0] 
r 12.941702731 _2_ MAC  --- 1 vectorbasedforward 400 [0 3000000 ffff0008 0] [energy 9999.727746 ei 0.102 es 0.000 et 0.080 er 0.090] ------- [5:0 5:255 0 0] 
N -t 13.000000 -n 0 -e 9999.866320
N -t 13.000000 -n 1 -e 9999.786640
N -t 13.000000 -n 2 -e 9999.727280
N -t 13.000000 -n 3 -e 9999.647600
N -t 13.000000 -n 4 -e 9999.617920
N -t 13.000000 -n 5 -e 9999.677280
s 13.627541596 _2_ MAC  --- 1 vectorbasedforward 400 [0 2000000 ffff0008 0] [energy 9999.727280 ei 0.103 es 0.000 et 0.080 er 0.090] ------- [5:0 5:255 0 0] 
r 13.707541596 _3_ MAC  --- 1 vectorbasedforward 400 [0 2000000 ffff0008 0] [energy 9999.612260 ei 0.108 es 0.000 et 0.160 er 0.120] ------- [5:0 5:255 0 0] 
r 13.707541596 _1_ MAC  --- 1 vectorbasedforward 400 [0 2000000 ffff0008 0] [energy 9999.751300 ei 0.109 es 0.000 et 0.080 er 0.060] ------- [5:0 5:255 0 0] 
N -t 14.000000 -n 0 -e 9999.858320
N -t 14.000000 -n 1 -e 9999.748960
N -t 14.000000 -n 2 -e 9999.639600
N -t 14.000000 -n 3 -e 9999.609920
N -t 14.000000 -n 4 -e 9999.609920
N -t 14.000000 -n 5 -e 9999.669280
s 14.393380461 _1_ MAC  --- 1 vectorbasedforward 400 [0 1000000 ffff0008 0] [energy 9999.748960 ei 0.111 es 0.000 et 0.080 er 0.060] ------- [5:0 5:255 0 0] 
r 14.473380461 _2_ MAC  --- 1 vectorbasedforward 400 [0 1000000 ffff0008 0] [energy 9999.606133 ei 0.114 es 0.000 et 0.160 er 0.120] ------- [5:0 5:255 0 0] 
r 14.473380461 _0_ MAC  --- 1 vectorbasedforward 400 [0 1000000 ffff0008 0] [energy 9999.824853 ei 0.115 es 0.000 et 0.000 er 0.060] ------- [5:0 5:255 0 0] 
N -t 15.000000 -n 0 -e 9999.820640
N -t 15.000000 -n 1 -e 9999.661280
N -t 15.000000 -n 2 -e 9999.601920
N -t 15.000000 -n 3 -e 9999.601920
N -t 15.000000 -n 4 -e 9999.601920
N -t 15.000000 -n 5 -e 9999.661280
N -t 16.000000 -n 0 -e 9999.812640
N -t 16.000000 -n 1 -e 9999.653280
N -t 16.000000 -n 2 -e 9999.593920
N -t 16.000000 -n 3 -e 9999.593920
N -t 16.000000 -n 4 -e 9999.593920
N -t 16.000000 -n 5 -e 9999.653280
N -t 17.000000 -n 0 -e 9999.804640
N -t 17.000000 -n 1 -e 9999.645280
N -t 17.000000 -n 2 -e 9999.585920
N -t 17.000000 -n 3 -e 9999.585920
N -t 17.000000 -n 4 -e 9999.585920
N -t 17.000000 -n 5 -e 9999.645280
N -t 18.000000 -n 0 -e 9999.796640
N -t 18.000000 -n 1 -e 9999.637280
N -t 18.000000 -n 2 -e 9999.577920
N -t 18.000000 -n 3 -e 9999.577920
N -t 18.000000 -n 4 -e 9999.577920
N -t 18.000000 -n 5 -e 9999.637280
N -t 19.000000 -n 0 -e 9999.788640
N -t 19.000000 -n 1 -e 9999.629280
N -t 19.000000 -n 2 -e 9999.569920
N -t 19.000000 -n 3 -e 9999.569920
N -t 19.000000 -n 4 -e 9999.569920
N -t 19.000000 -n 5 -e 9999.629280
N -t 20.000000 -n 0 -e 9999.780640
N -t 20.000000 -n 1 -e 9999.621280
N -t 20.000000 -n 2 -e 9999.561920
N -t 20.000000 -n 3 -e 9999.561920
N -t 20.000000 -n 4 -e 9999.561920
N -t 20.000000 -n 5 -e 9999.621280
N -t 21.000000 -n 0 -e 9999.772640
N -t 21.000000 -n 1 -e 9999.613280
N -t 21.000000 -n 2 -e 9999.553920
N -t 21.000000 -n 3 -e 9999.553920
N -t 21.000000 -n 4 -e 9999.553920
N -t 21.000000 -n 5 -e 9999.613280
s 21.330025000 _5_ MAC  --- 2 vectorbasedforward 400 [0 5000000 ffff0008 0] [energy 9999.613280 ei 0.167 es 0.000 et 0.160 er 0.060] ------- [5:0 5:255 0 0] 
r 21.410025000 _4_ MAC  --- 2 vectorbasedforward 400 [0 5000000 ffff0008 0] [energy 9999.520960 ei 0.169 es 0.000 et 0.160 er 0.150] ------- [5:0 5:255 0 0] 
N -t 22.000000 -n 0 -e 9999.764640
N -t 22.000000 -n 1 -e 9999.605280
N -t 22.000000 -n 2 -e 9999.545920
N -t 22.000000 -n 3 -e 9999.545920
N -t 22.000000 -n 4 -e 9999.516240
N -t 22.000000 -n 5 -e 9999.525600
s 22.095863865 _4_ MAC  --- 2 vectorbasedforward 400 [0 4000000 ffff0008 0] [energy 9999.516240 ei 0.174 es 0.000 et 0.160 er 0.150] ------- [5:0 5:255 0 0] 
r 22.175863865 _5_ MAC  --- 2 vectorbasedforward 400 [0 4000000 ffff0008 0] [energy 9999.494513 ei 0.175 es 0.000 et 0.240 er 0.090] ------- [5:0 5:255 0 0] 
r 22.175863865 _3_ MAC  --- 2 vectorbasedforward 400 [0 4000000 ffff0008 0] [energy 9999.514833 ei 0.175 es 0.000 et 0.160 er 0.150] ------- [5:0 5:255 0 0] 
s 22.861702731 _3_ MAC  --- 2 vectorbasedforward 400 [0 3000000 ffff0008 0] [energy 9999.514833 ei 0.175 es 0.000 et 0.160 er 0.150] ------- [5:0 5:255 0 0] 
r 22.941702731 _4_ MAC  --- 2 vectorbasedforward 400 [0 3000000 ffff0008 0] [energy 9999.399346 ei 0.181 es 0.000 et 0.240 er 0.180] ------- [5:0 5:255 0 0] 
r 22.941702731 _2_ MAC  --- 2 vectorbasedforward 400 [0 3000000 ffff0008 0] [energy 9999.508706 ei 0.181 es 0.000 et 0.160 er 0.150] ------- [5:0 5:255 0 0] 
N -t 23.000000 -n 0 -e 9999.756640
N -t 23.000000 -n 1 -e 9999.597280
N -t 23.000000 -n 2 -e 9999.508240
N -t 23.000000 -n 3 -e 9999.428560
N -t 23.000000 -n 4 -e 9999.398880
N -t 23.000000 -n 5 -e 9999.487920
s 23.627541596 _2_ MAC  --- 2 vectorbasedforward 400 [0 2000000 ffff0008 0] [energy 9999.508240 ei 0.182 es 0.000 et 0.160 er 0.150] ------- [5:0 5:255 0 0] 
r 23.707541596 _3_ MAC  --- 2 vectorbasedforward 400 [0 2000000 ffff0008 0] [energy 9999.393220 ei 0.187 es 0.000 et 0.240 er 0.180] ------- [5:0 5:255 0 0] 
r 23.707541596 _1_ MAC  --- 2 vectorbasedforward 400 [0 2000000 ffff0008 0] [energy 9999.561940 ei 0.188 es 0.000 et 0.160 er 0.090] ------- [5:0 5:255 0 0] 
N -t 24.000000 -n 0 -e 9999.748640
N -t 24.000000 -n 1 -e 9999.559600
N -t 24.000000 -n 2 -e 9999.420560
N -t 24.000000 -n 3 -e 9999.390880
N -t 24.000000 -n 4 -e 9999.390880
N -t 24.000000 -n 5 -e 9999.479920
s 24.393380461 _1_ MAC  --- 2 vectorbasedforward 400 [0 1000000 ffff0008 0] [energy 9999.559600 ei 0.190 es 0.000 et 0.160 er 0.090] ------- [5:0 5:255 0 0] 
r 24.473380461 _2_ MAC  --- 2 vectorbasedforward 400 [0 1000000 ffff0008 0] [energy 9999.387093 ei 0.193 es 0.000 et 0.240 er 0.180] ------- [5:0 5:255 0 0] 
r 24.473380461 _0_ MAC  --- 2 vectorbasedforward 400 [0 1000000 ffff0008 0] [energy 9999.715173 ei 0.195 es 0.000 et 0.000 er 0.090] ------- [5:0 5:255 0 0] 
N -t 25.000000 -n 0 -e 9999.710960
N -t 25.000000 -n 1 -e 9999.471920
N -t 25.000000 -n 2 -e 9999.382880
N -t 25.000000 -n 3 -e 9999.382880
N -t 25.000000 -n 4 -e 9999.382880
N -t 25.000000 -n 5 -e 9999.471920
N -t 26.000000 -n 0 -e 9999.702960
N -t 26.000000 -n 1 -e 9999.463920
N -t 26.000000 -n 2 -e 9999.374880
N -t 26.000000 -n 3 -e 9999.374880
N -t 26.000000 -n 4 -e 9999.374880
N -t 26.000000 -n 5 -e 9999.463920
N -t 27.000000 -n 0 -e 9999.694960
N -t 27.000000 -n 1 -e 9999.455920
N -t 27.000000 -n 2 -e 9999.366880
N -t 27.000000 -n 3 -e 9999.366880
N -t 27.000000 -n 4 -e 9999.366880
N -t 27.000000 -n 5 -e 9999.455920
N -t 28.000000 -n 0 -e 9999.686960
N -t 28.000000 -n 1 -e 9999.447920
N -t 28.000000 -n 2 -e 9999.358880
N -t 28.000000 -n 3 -e 9999.358880
N -t 28.000000 -n 4 -e 9999.358880
N -t 28.000000 -n 5 -e 9999.447920
N -t 29.000000 -n 0 -e 9999.678960
N -t 29.000000 -n 1 -e 9999.439920
N -t 29.000000 -n 2 -e 9999.350880
N -t 29.000000 -n 3 -e 9999.350880
N -t 29.000000 -n 4 -e 9999.350880
N -t 29.000000 -n 5 -e 9999.439920
N -t 30.000000 -n 0 -e 9999.670960
N -t 30.000000 -n 1 -e 9999.431920
N -t 30.000000 -n 2 -e 9999.342880
N -t 30.000000 -n 3 -e 9999.342880
N -t 30.000000 -n 4 -e 9999.342880
N -t 30.000000 -n 5 -e 9999.431920
N -t 31.000000 -n 0 -e 9999.662960
N -t 31.000000 -n 1 -e 9999.423920
N -t 31.000000 -n 2 -e 9999.334880
N -t 31.000000 -n 3 -e 9999.334880
N -t 31.000000 -n 4 -e 9999.334880
N -t 31.000000 -n 5 -e 9999.423920
s 31.330025000 _5_ MAC  --- 3 vectorbasedforward 400 [0 5000000 ffff0008 0] [energy 9999.423920 ei 0.246 es 0.000 et 0.240 er 0.090] ------- [5:0 5:255 0 0] 
r 31.410025000 _4_ MAC  --- 3 vectorbasedforward 400 [0 5000000 ffff0008 0] [energy 9999.301920 ei 0.248 es 0.000 et 0.240 er 0.210] ------- [5:0 5:255 0 0] 
N -t 32.000000 -n 0 -e 9999.654960
N -t 32.000000 -n 1 -e 9999.415920
N -t 32.000000 -n 2 -e 9999.326880
N -t 32.000000 -n 3 -e 9999.326880
N -t 32.000000 -n 4 -e 9999.297200
N -t 32.000000 -n 5 -e 9999.336240
s 32.095863865 _4_ MAC  --- 3 vectorbasedforward 400 [0 4000000 ffff0008 0] [energy 9999.297200 ei 0.253 es 0.000 et 0.240 er 0.210] ------- [5:0 5:255 0 0] 
r 32.175863865 _5_ MAC  --- 3 vectorbasedforward 400 [0 4000000 ffff0008 0] [energy 9999.305153 ei 0.255 es 0.000 et 0.320 er 0.120] ------- [5:0 5:255 0 0] 
r 32.175863865 _3_ MAC  --- 3 vectorbasedforward 400 [0 4000000 ffff0008 0] [energy 9999.295793 ei 0.254 es 0.000 et 0.240 er 0.210] ------- [5:0 5:255 0 0] 
s 32.861702731 _3_ MAC  --- 3 vectorbasedforward 400 [0 3000000 ffff0008 0] [energy 9999.295793 ei 0.254 es 0.000 et 0.240 er 0.210] ------- [5:0 5:255 0 0] 
r 32.941702731 _4_ MAC  --- 3 vectorbasedforward 400 [0 3000000 ffff0008 0] [energy 9999.180306 ei 0.260 es 0.000 et 0.320 er 0.240] ------- [5:0 5:255 0 0] 
r 32.941702731 _2_ MAC  --- 3 vectorbasedforward 400 [0 3000000 ffff0008 0] [energy 9999.289666 ei 0.260 es 0.000 et 0.240 er 0.210] ------- [5:0 5:255 0 0] 
N -t 33.000000 -n 0 -e 9999.646960
N -t 33.000000 -n 1 -e 9999.407920
N -t 33.000000 -n 2 -e 9999.289200
N -t 33.000000 -n 3 -e 9999.209520
N -t 33.000000 -n 4 -e 9999.179840
N -t 33.000000 -n 5 -e 9999.298560
s 33.627541596 _2_ MAC  --- 3 vectorbasedforward 400 [0 2000000 ffff0008 0] [energy 9999.289200 ei 0.261 es 0.000 et 0.240 er 0.210] ------- [5:0 5:255 0 0] 
r 33.707541596 _3_ MAC  --- 3 vectorbasedforward 400 [0 2000000 ffff0008 0] [energy 9999.174180 ei 0.266 es 0.000 et 0.320 er 0.240] ------- [5:0 5:255 0 0] 
r 33.707541596 _1_ MAC  --- 3 vectorbasedforward 400 [0 2000000 ffff0008 0] [energy 9999.372580 ei 0.267 es 0.000 et 0.240 er 0.120] ------- [5:0 5:255 0 0] 
N -t 34.000000 -n 0 -e 9999.638960
N -t 34.000000 -n 1 -e 9999.370240
N -t 34.000000 -n 2 -e 9999.201520
N -t 34.000000 -n 3 -e 9999.171840
N -t 34.000000 -n 4 -e 9999.171840
N -t 34.000000 -n 5 -e 9999.290560
s 34.393380461 _1_ MAC  --- 3 vectorbasedforward 400 [0 1000000 ffff0008 0] [energy 9999.370240 ei 0.270 es 0.000 et 0.240 er 0.120] ------- [5:0 5:255 0 0] 
r 34.473380461 _2_ MAC  --- 3 vectorbasedforward 400 [0 1000000 ffff0008 0] [energy 9999.168053 ei 0.272 es 0.000 et 0.320 er 0.240] ------- [5:0 5:255 0 0] 
r 34.473380461 _0_ MAC  --- 3 vectorbasedforward 400 [0 1000000 ffff0008 0] [energy 9999.605493 ei 0.275 es 0.000 et 0.000 er 0.120] ------- [5:0 5:255 0 0] 
N -t 35.000000 -n 0 -e 9999.601280
N -t 35.000000 -n 1 -e 9999.282560
N -t 35.000000 -n 2 -e 9999.163840
N -t 35.000000 -n 3 -e 9999.163840
N -t 35.000000 -n 4 -e 9999.163840
N -t 35.000000 -n 5 -e 9999.282560
N -t 36.000000 -n 0 -e 9999.593280
N -t 36.000000 -n 1 -e 9999.274560
N -t 36.000000 -n 2 -e 9999.155840
N -t 36.000000 -n 3 -e 9999.155840
N -t 36.000000 -n 4 -e 9999.155840
N -t 36.000000 -n 5 -e 9999.274560
N -t 37.000000 -n 0 -e 9999.585280
N -t 37.000000 -n 1 -e 9999.266560
N -t 37.000000 -n 2 -e 9999.147840
N -t 37.000000 -n 3 -e 9999.147840
N -t 37.000000 -n 4 -e 9999.147840
N -t 37.000000 -n 5 -e 9999.266560
N -t 38.000000 -n 0 -e 9999.577280
N -t 38.000000 -n 1 -e 9999.258560
N -t 38.000000 -n 2 -e 9999.139840
N -t 38.000000 -n 3 -e 9999.139840
N -t 38.000000 -n 4 -e 9999.139840
N -t 38.000000 -n 5 -e 9999.258560
N -t 39.000000 -n 0 -e 9999.569280
N -t 39.000000 -n 1 -e 9999.250560
N -t 39.000000 -n 2 -e 9999.131840
N -t 39.000000 -n 3 -e 9999.131840
N -t 39.000000 -n 4 -e 9999.131840
N -t 39.000000 -n 5 -e 9999.250560
N -t 40.000000 -n 0 -e 9999.561280
N -t 40.000000 -n 1 -e 9999.242560
N -t 40.000000 -n 2 -e 9999.123840
N -t 40.000000 -n 3 -e 9999.123840
N -t 40.000000 -n 4 -e 9999.123840
N -t 40.000000 -n 5 -e 9999.242560
N -t 41.000000 -n 0 -e 9999.553280
N -t 41.000000 -n 1 -e 9999.234560
N -t 41.000000 -n 2 -e 9999.115840
N -t 41.000000 -n 3 -e 9999.115840
N -t 41.000000 -n 4 -e 9999.115840
N -t 41.000000 -n 5 -e 9999.234560
s 41.330025000 _5_ MAC  --- 4 vectorbasedforward 400 [0 5000000 ffff0008 0] [energy 9999.234560 ei 0.325 es 0.000 et 0.320 er 0.120] ------- [5:0 5:255 0 0] 
r 41.410025000 _4_ MAC  --- 4 vectorbasedforward 400 [0 5000000 ffff0008 0] [energy 9999.082880 ei 0.327 es 0.000 et 0.320 er 0.270] ------- [5:0 5:255 0 0] 
N -t 42.000000 -n 0 -e 9999.545280
N -t 42.000000 -n 1 -e 9999.226560
N -t 42.000000 -n 2 -e 9999.107840
N -t 42.000000 -n 3 -e 9999.107840
N -t 42.000000 -n 4 -e 9999.078160
N -t 42.000000 -n 5 -e 9999.146880
s 42.095863865 _4_ MAC  --- 4 vectorbasedforward 400 [0 4000000 ffff0008 0] [energy 9999.078160 ei 0.332 es 0.000 et 0.320 er 0.270] ------- [5:0 5:255 0 0] 
r 42.175863865 _5_ MAC  --- 4 vectorbasedforward 400 [0 4000000 ffff0008 0] [energy 9999.115793 ei 0.334 es 0.000 et 0.400 er 0.150] ------- [5:0 5:255 0 0] 
r 42.175863865 _3_ MAC  --- 4 vectorbasedforward 400 [0 4000000 ffff0008 0] [energy 9999.076753 ei 0.333 es 0.000 et 0.320 er 0.270] ------- [5:0 5:255 0 0] 
s 42.861702731 _3_ MAC  --- 4 vectorbasedforward 400 [0 3000000 ffff0008 0] [energy 9999.076753 ei 0.333 es 0.000 et 0.320 er 0.270] ------- [5:0 5:255 0 0] 
r 42.941702731 _4_ MAC  --- 4 vectorbasedforward 400 [0 3000000 ffff0008 0] [energy 9998.961266 ei 0.339 es 0.000 et 0.400 er 0.300] ------- [5:0 5:255 0 0] 
r 42.941702731 _2_ MAC  --- 4 vectorbasedforward 400 [0 3000000 ffff0008 0] [energy 9999.070626 ei 0.339 es 0.000 et 0.320 er 0.270] ------- [5:0 5:255 0 0] 
N -t 43.000000 -n 0 -e 9999.537280
N -t 43.000000 -n 1 -e 9999.218560
N -t 43.000000 -n 2 -e 9999.070160
N -t 43.000000 -n 3 -e 9998.990480
N -t 43.000000 -n 4 -e 9998.960800
N -t 43.000000 -n 5 -e 9999.109200
s 43.627541596 _2_ MAC  --- 4 vectorbasedforward 400 [0 2000000 ffff0008 0] [energy 9999.070160 ei 0.340 es 0.000 et 0.320 er 0.270] ------- [5:0 5:255 0 0] 
r 43.707541596 _3_ MAC  --- 4 vectorbasedforward 400 [0 2000000 ffff0008 0] [energy 9998.955140 ei 0.345 es 0.000 et 0.400 er 0.300] ------- [5:0 5:255 0 0] 
r 43.707541596 _1_ MAC  --- 4 vectorbasedforward 400 [0 2000000 ffff0008 0] [energy 9999.183220 ei 0.347 es 0.000 et 0.320 er 0.150] ------- [5:0 5:255 0 0] 
N -t 44.000000 -n 0 -e 9999.529280
N -t 44.000000 -n 1 -e 9999.180880
N -t 44.000000 -n 2 -e 9998.982480
N -t 44.000000 -n 3 -e 9998.952800
N -t 44.000000 -n 4 -e 9998.952800
N -t 44.000000 -n 5 -e 9999.101200
s 44.393380461 _1_ MAC  --- 4 vectorbasedforward 400 [0 1000000 ffff0008 0] [energy 9999.180880 ei 0.349 es 0.000 et 0.320 er 0.150] ------- [5:0 5:255 0 0] 
r 44.473380461 _2_ MAC  --- 4 vectorbasedforward 400 [0 1000000 ffff0008 0] [energy 9998.949013 ei 0.351 es 0.000 et 0.400 er 0.300] ------- [5:0 5:255 0 0] 
r 44.473380461 _0_ MAC  --- 4 vectorbasedforward 400 [0 1000000 ffff0008 0] [energy 9999.495813 ei 0.354 es 0.000 et 0.000 er 0.150] ------- [5:0 5:255 0 0] 
N -t 45.000000 -n 0 -e 9999.491600
N -t 45.000000 -n 1 -e 9999.093200
N -t 45.000000 -n 2 -e 9998.944800
N -t 45.000000 -n 3 -e 9998.944800
N -t 45.000000 -n 4 -e 9998.944800
N -t 45.000000 -n 5 -e 9999.093200
N -t 46.000000 -n 0 -e 9999.483600
N -t 46.000000 -n 1 -e 9999.085200
N -t 46.000000 -n 2 -e 9998.936800
N -t 46.000000 -n 3 -e 9998.936800
N -t 46.000000 -n 4 -e 9998.936800
N -t 46.000000 -n 5 -e 9999.085200
N -t 47.000000 -n 0 -e 9999.475600
N -t 47.000000 -n 1 -e 9999.077200
N -t 47.000000 -n 2 -e 9998.928800
N -t 47.000000 -n 3 -e 9998.928800
N -t 47.000000 -n 4 -e 9998.928800
N -t 47.000000 -n 5 -e 9999.077200
N -t 48.000000 -n 0 -e 9999.467600
N -t 48.000000 -n 1 -e 9999.069200
N -t 48.000000 -n 2 -e 9998.920800
N -t 48.000000 -n 3 -e 9998.920800
N -t 48.000000 -n 4 -e 9998.920800
N -t 48.000000 -n 5 -e 9999.069200
N -t 49.000000 -n 0 -e 9999.459600
N -t 49.000000 -n 1 -e 9999.061200
N -t 49.000000 -n 2 -e 9998.912800
N -t 49.000000 -n 3 -e 9998.912800
N -t 49.000000 -n 4 -e 9998.912800
N -t 49.000000 -n 5 -e 9999.061200
N -t 50.000000 -n 0 -e 9999.451600
N -t 50.000000 -n 1 -e 9999.053200
N -t 50.000000 -n 2 -e 9998.904800
N -t 50.000000 -n 3 -e 9998.904800
N -t 50.000000 -n 4 -e 9998.904800
N -t 50.000000 -n 5 -e 9999.053200
N -t 51.000000 -n 0 -e 9999.443600
N -t 51.000000 -n 1 -e 9999.045200
N -t 51.000000 -n 2 -e 9998.896800
N -t 51.000000 -n 3 -e 9998.896800
N -t 51.000000 -n 4 -e 9998.896800
N -t 51.000000 -n 5 -e 9999.045200
s 51.330025000 _5_ MAC  --- 5 vectorbasedforward 400 [0 5000000 ffff0008 0] [energy 9999.045200 ei 0.405 es 0.000 et 0.400 er 0.150] ------- [5:0 5:255 0 0] 
r 51.410025000 _4_ MAC  --- 5 vectorbasedforward 400 [0 5000000 ffff0008 0] [energy 9998.863840 ei 0.406 es 0.000 et 0.400 er 0.330] ------- [5:0 5:255 0 0] 
N -t 52.000000 -n 0 -e 9999.435600
N -t 52.000000 -n 1 -e 9999.037200
N -t 52.000000 -n 2 -e 9998.888800
N -t 52.000000 -n 3 -e 9998.888800
N -t 52.000000 -n 4 -e 9998.859120
N -t 52.000000 -n 5 -e 9998.957520
s 52.095863865 _4_ MAC  --- 5 vectorbasedforward 400 [0 4000000 ffff0008 0] [energy 9998.859120 ei 0.411 es 0.000 et 0.400 er 0.330] ------- [5:0 5:255 0 0] 
r 52.175863865 _5_ MAC  --- 5 vectorbasedforward 400 [0 4000000 ffff0008 0] [energy 9998.926433 ei 0.414 es 0.000 et 0.480 er 0.180] ------- [5:0 5:255 0 0] 
r 52.175863865 _3_ MAC  --- 5 vectorbasedforward 400 [0 4000000 ffff0008 0] [energy 9998.857713 ei 0.412 es 0.000 et 0.400 er 0.330] ------- [5:0 5:255 0 0] 
s 52.861702731 _3_ MAC  --- 5 vectorbasedforward 400 [0 3000000 ffff0008 0] [energy 9998.857713 ei 0.412 es 0.000 et 0.400 er 0.330] ------- [5:0 5:255 0 0] 
r 52.941702731 _4_ MAC  --- 5 vectorbasedforward 400 [0 3000000 ffff0008 0] [energy 9998.742226 ei 0.418 es 0.000 et 0.480 er 0.360] ------- [5:0 5:255 0 0] 
r 52.941702731 _2_ MAC  --- 5 vectorbasedforward 400 [0 3000000 ffff0008 0] [energy 9998.851586 ei 0.418 es 0.000 et 0.400 er 0.330] ------- [5:0 5:255 0 0] 
N -t 53.000000 -n 0 -e 9999.427600
N -t 53.000000 -n 1 -e 9999.029200
N -t 53.000000 -n 2 -e 9998.851120
N -t 53.000000 -n 3 -e 9998.771440
N -t 53.000000 -n 4 -e 9998.741760
N -t 53.000000 -n 5 -e 9998.919840
s 53.627541596 _2_ MAC  --- 5 vectorbasedforward 400 [0 2000000 ffff0008 0] [energy 9998.851120 ei 0.419 es 0.000 et 0.400 er 0.330] ------- [5:0 5:255 0 0] 
r 53.707541596 _3_ MAC  --- 5 vectorbasedforward 400 [0 2000000 ffff0008 0] [energy 9998.736100 ei 0.424 es 0.000 et 0.480 er 0.360] ------- [5:0 5:255 0 0] 
r 53.707541596 _1_ MAC  --- 5 vectorbasedforward 400 [0 2000000 ffff0008 0] [energy 9998.993860 ei 0.426 es 0.000 et 0.400 er 0.180] ------- [5:0 5:255 0 0] 
N -t 54.000000 -n 0 -e 9999.419600
N -t 54.000000 -n 1 -e 9998.991520
N -t 54.000000 -n 2 -e 9998.763440
N -t 54.000000 -n 3 -e 9998.733760
N -t 54.000000 -n 4 -e 9998.733760
N -t 54.000000 -n 5 -e 9998.911840
s 54.393380461 _1_ MAC  --- 5 vectorbasedforward 400 [0 1000000 ffff0008 0] [energy 9998.991520 ei 0.428 es 0.000 et 0.400 er 0.180] ------- [5:0 5:255 0 0] 
r 54.473380461 _2_ MAC  --- 5 vectorbasedforward 400 [0 1000000 ffff0008 0] [energy 9998.729973 ei 0.430 es 0.000 et 0.480 er 0.360] ------- [5:0 5:255 0 0] 
r 54.473380461 _0_ MAC  --- 5 vectorbasedforward 400 [0 1000000 ffff0008 0] [energy 9999.386133 ei 0.434 es 0.000 et 0.000 er 0.180] ------- [5:0 5:255 0 0] 
N -t 55.000000 -n 0 -e 9999.381920
N -t 55.000000 -n 1 -e 9998.903840
N -t 55.000000 -n 2 -e 9998.725760
N -t 55.000000 -n 3 -e 9998.725760
N -t 55.000000 -n 4 -e 9998.725760
N -t 55.000000 -n 5 -e 9998.903840
N -t 56.000000 -n 0 -e 9999.373920
N -t 56.000000 -n 1 -e 9998.895840
N -t 56.000000 -n 2 -e 9998.717760
N -t 56.000000 -n 3 -e 9998.717760
N -t 56.000000 -n 4 -e 9998.717760
N -t 56.000000 -n 5 -e 9998.895840
N -t 57.000000 -n 0 -e 9999.365920
N -t 57.000000 -n 1 -e 9998.887840
N -t 57.000000 -n 2 -e 9998.709760
N -t 57.000000 -n 3 -e 9998.709760
N -t 57.000000 -n 4 -e 9998.709760
N -t 57.000000 -n 5 -e 9998.887840
N -t 58.000000 -n 0 -e 9999.357920
N -t 58.000000 -n 1 -e 9998.879840
N -t 58.000000 -n 2 -e 9998.701760
N -t 58.000000 -n 3 -e 9998.701760
N -t 58.000000 -n 4 -e 9998.701760
N -t 58.000000 -n 5 -e 9998.879840
N -t 59.000000 -n 0 -e 9999.349920
N -t 59.000000 -n 1 -e 9998.871840
N -t 59.000000 -n 2 -e 9998.693760
N -t 59.000000 -n 3 -e 9998.693760
N -t 59.000000 -n 4 -e 9998.693760
N -t 59.000000 -n 5 -e 9998.871840
N -t 60.000000 -n 0 -e 9999.341920
N -t 60.000000 -n 1 -e 9998.863840
N -t 60.000000 -n 2 -e 9998.685760
N -t 60.000000 -n 3 -e 9998.685760
N -t 60.000000 -n 4 -e 9998.685760
N -t 60.000000 -n 5 -e 9998.863840
N -t 61.000000 -n 0 -e 9999.333920
N -t 61.000000 -n 1 -e 9998.855840
N -t 61.000000 -n 2 -e 9998.677760
N -t 61.000000 -n 3 -e 9998.677760
N -t 61.000000 -n 4 -e 9998.677760
N -t 61.000000 -n 5 -e 9998.855840
s 61.330025000 _5_ MAC  --- 6 vectorbasedforward 400 [0 5000000 ffff0008 0] [energy 9998.855840 ei 0.484 es 0.000 et 0.480 er 0.180] ------- [5:0 5:255 0 0] 
r 61.410025000 _4_ MAC  --- 6 vectorbasedforward 400 [0 5000000 ffff0008 0] [energy 9998.644800 ei 0.485 es 0.000 et 0.480 er 0.390] ------- [5:0 5:255 0 0] 
N -t 62.000000 -n 0 -e 9999.325920
N -t 62.000000 -n 1 -e 9998.847840
N -t 62.000000 -n 2 -e 9998.669760
N -t 62.000000 -n 3 -e 9998.669760
N -t 62.000000 -n 4 -e 9998.640080
N -t 62.000000 -n 5 -e 9998.768160
s 62.095863865 _4_ MAC  --- 6 vectorbasedforward 400 [0 4000000 ffff0008 0] [energy 9998.640080 ei 0.490 es 0.000 et 0.480 er 0.390] ------- [5:0 5:255 0 0] 
r 62.175863865 _5_ MAC  --- 6 vectorbasedforward 400 [0 4000000 ffff0008 0] [energy 9998.737073 ei 0.493 es 0.000 et 0.560 er 0.210] ------- [5:0 5:255 0 0] 
r 62.175863865 _3_ MAC  --- 6 vectorbasedforward 400 [0 4000000 ffff0008 0] [energy 9998.638673 ei 0.491 es 0.000 et 0.480 er 0.390] ------- [5:0 5:255 0 0] 
s 62.861702731 _3_ MAC  --- 6 vectorbasedforward 400 [0 3000000 ffff0008 0] [energy 9998.638673 ei 0.491 es 0.000 et 0.480 er 0.390] ------- [5:0 5:255 0 0] 
r 62.941702731 _4_ MAC  --- 6 vectorbasedforward 400 [0 3000000 ffff0008 0] [energy 9998.523186 ei 0.497 es 0.000 et 0.560 er 0.420] ------- [5:0 5:255 0 0] 
r 62.941702731 _2_ MAC  --- 6 vectorbasedforward 400 [0 3000000 ffff0008 0] [energy 9998.632546 ei 0.497 es 0.000 et 0.480 er 0.390] ------- [5:0 5:255 0 0] 
N -t 63.000000 -n 0 -e 9999.317920
N -t 63.000000 -n 1 -e 9998.839840
N -t 63.000000 -n 2 -e 9998.632080
N -t 63.000000 -n 3 -e 9998.552400
N -t 63.000000 -n 4 -e 9998.522720
N -t 63.000000 -n 5 -e 9998.730480
s 63.627541596 _2_ MAC  --- 6 vectorbasedforward 400 [0 2000000 ffff0008 0] [energy 9998.632080 ei 0.498 es 0.000 et 0.480 er 0.390] ------- [5:0 5:255 0 0] 
r 63.707541596 _3_ MAC  --- 6 vectorbasedforward 400 [0 2000000 ffff0008 0] [energy 9998.517060 ei 0.503 es 0.000 et 0.560 er 0.420] ------- [5:0 5:255 0 0] 
r 63.707541596 _1_ MAC  --- 6 vectorbasedforward 400 [0 2000000 ffff0008 0] [energy 9998.804500 ei 0.506 es 0.000 et 0.480 er 0.210] ------- [5:0 5:255 0 0] 
N -t 64.000000 -n 0 -e 9999.309920
N -t 64.000000 -n 1 -e 9998.802160
N -t 64.000000 -n 2 -e 9998.544400
N -t 64.000000 -n 3 -e 9998.514720
N -t 64.000000 -n 4 -e 9998.514720
N -t 64.000000 -n 5 -e 9998.722480
s 64.393380461 _1_ MAC  --- 6 vectorbasedforward 400 [0 1000000 ffff0008 0] [energy 9998.802160 ei 0.508 es 0.000 et 0.480 er 0.210] ------- [5:0 5:255 0 0] 
r 64.473380461 _2_ MAC  --- 6 vectorbasedforward 400 [0 1000000 ffff0008 0] [energy 9998.510933 ei 0.509 es 0.000 et 0.560 er 0.420] ------- [5:0 5:255 0 0] 
r 64.473380461 _0_ MAC  --- 6 vectorbasedforward 400 [0 1000000 ffff0008 0] [energy 9999.276453 ei 0.514 es 0.000 et 0.000 er 0.210] ------- [5:0 5:255 0 0] 
N -t 65.000000 -n 0 -e 9999.272240
N -t 65.000000 -n 1 -e 9998.714480
N -t 65.000000 -n 2 -e 9998.506720
N -t 65.000000 -n 3 -e 9998.506720
N -t 65.000000 -n 4 -e 9998.506720
N -t 65.000000 -n 5 -e 9998.714480
N -t 66.000000 -n 0 -e 9999.264240
N -t 66.000000 -n 1 -e 9998.706480
N -t 66.000000 -n 2 -e 9998.498720
N -t 66.000000 -n 3 -e 9998.498720
N -t 66.000000 -n 4 -e 9998.498720
N -t 66.000000 -n 5 -e 9998.706480
N -t 67.000000 -n 0 -e 9999.256240
N -t 67.000000 -n 1 -e 9998.698480
N -t 67.000000 -n 2 -e 9998.490720
N -t 67.000000 -n 3 -e 9998.490720
N -t 67.000000 -n 4 -e 9998.490720
N -t 67.000000 -n 5 -e 9998.698480
N -t 68.000000 -n 0 -e 9999.248240
N -t 68.000000 -n 1 -e 9998.690480
N -t 68.000000 -n 2 -e 9998.482720
N -t 68.000000 -n 3 -e 9998.482720
N -t 68.000000 -n 4 -e 9998.482720
N -t 68.000000 -n 5 -e 9998.690480
N -t 69.000000 -n 0 -e 9999.240240
N -t 69.000000 -n 1 -e 9998.682480
N -t 69.000000 -n 2 -e 9998.474720
N -t 69.000000 -n 3 -e 9998.474720
N -t 69.000000 -n 4 -e 9998.474720
N -t 69.000000 -n 5 -e 9998.682480
N -t 70.000000 -n 0 -e 9999.232240
N -t 70.000000 -n 1 -e 9998.674480